
     Program PHONON v.7.0 starts on 25May2022 at 21:50: 7 

     This program is part of the open-source Quantum ESPRESSO suite
     for quantum simulation of materials; please cite
         "P. Giannozzi et al., J. Phys.:Condens. Matter 21 395502 (2009);
         "P. Giannozzi et al., J. Phys.:Condens. Matter 29 465901 (2017);
         "P. Giannozzi et al., J. Chem. Phys. 152 154105 (2020);
          URL http://www.quantum-espresso.org", 
     in publications or presentations arising from this work. More details at
     http://www.quantum-espresso.org/quote

     Parallel version (MPI), running on    20 processors

     MPI processes distributed on     1 nodes
     R & G space division:  proc/nbgrp/npool/nimage =      20
     71385 MiB available memory on the printing compute node when the environment starts
 
     Reading input from /home/mgrebenyuk/QE/Examples/ThH9/150GPa/4x4x4/ph.in

     Reading xml data from directory:

     ./Th2H18.save/

     IMPORTANT: XC functional enforced from input :
     Exchange-correlation= PZ
                           (   1   1   0   0   0   0   0)
     Any further DFT definition will be discarded
     Please, verify this is what you really want

 
     Parallelization info
     --------------------
     sticks:   dense  smooth     PW     G-vecs:    dense   smooth      PW
     Min          54      54     15                 2194     2194     337
     Max          56      56     16                 2199     2199     344
     Sum        1099    1099    313                43927    43927    6813
 
     Using Slab Decomposition
 
     Reading collected, re-writing distributed wavefunctions


     Dynamical matrices for ( 4, 4, 4)  uniform grid of q-points
     With a half shift
     (  12 q-points):
       N         xq(1)         xq(2)         xq(3) 
       1   0.125000000   0.216506351   0.083812113
       2   0.125000000   0.216506351   0.251436340
       3   0.125000000   0.505181486   0.083812113
       4   0.125000000   0.505181486   0.251436340
       5   0.125000000  -0.360843918   0.083812113
       6   0.125000000  -0.360843918   0.251436340
       7   0.125000000  -0.072168784   0.083812113
       8   0.125000000  -0.072168784   0.251436340
       9   0.375000000   0.649519053   0.083812113
      10   0.375000000   0.649519053   0.251436340
      11   0.375000000  -0.216506351   0.083812113
      12   0.375000000  -0.216506351   0.251436340
     Because shifted q grid is used, q2r will not work !
Eigenvectors exchange needed    4   33
Eigenvectors exchange needed    4   33

     Saving dvscf to file. Distribute only q points, not irreducible represetations.

     Calculation of q =    0.1250000   0.2165064   0.0838121

     Subspace diagonalization in iterative solution of the eigenvalue problem:
     a serial algorithm will be used

     [opt_tetra]  Optimized tetrahedron method is used.
 
     Parallelization info
     --------------------
     sticks:   dense  smooth     PW     G-vecs:    dense   smooth      PW
     Min          54      54     16                 2194     2194     362
     Max          56      56     18                 2199     2199     365
     Sum        1099    1099    337                43927    43927    7269
 
     Using Slab Decomposition
 

     Title: 
     Electron-phonon coefficients for Th2H18                                    


     bravais-lattice index     =            4
     lattice parameter (alat)  =       7.0655  a.u.
     unit-cell volume          =     455.5684 (a.u.)^3
     number of atoms/cell      =           20
     number of atomic types    =            2
     number of electrons       =        26.00
     number of Kohn-Sham states=           17
     kinetic-energy cutoff     =      80.0000  Ry
     charge density cutoff     =     320.0000  Ry
     Exchange-correlation= PZ
                           (   1   1   0   0   0   0   0)

     celldm(1)=   7.065451  celldm(2)=   0.000000  celldm(3)=   1.491431
     celldm(4)=   0.000000  celldm(5)=   0.000000  celldm(6)=   0.000000

     crystal axes: (cart. coord. in units of alat)
               a(1) = (   1.000000   0.000000   0.000000 )  
               a(2) = (  -0.500000   0.866025   0.000000 )  
               a(3) = (   0.000000   0.000000   1.491431 )  

     reciprocal axes: (cart. coord. in units 2 pi/alat)
               b(1) = (  1.000000  0.577350  0.000000 )  
               b(2) = (  0.000000  1.154701  0.000000 )  
               b(3) = (  0.000000  0.000000  0.670497 )  


     PseudoPot. # 1 for H  read from file:
     ./H.UPF
     MD5 check sum: df8e43189db5a2d7f03d0dd74d71ce72
     Pseudo is Norm-conserving, Zval =  1.0
     Generated in analytical, separable form
     Using radial grid of  929 points,  0 beta functions with: 

     PseudoPot. # 2 for Th read from file:
     ./Th.UPF
     MD5 check sum: a439cebac19eeec3fe133fa10c950477
     Pseudo is Norm-conserving + core correction, Zval =  4.0
     Generated using "atomic" code by A. Dal Corso  v.5.0.99 svn rev. 10869
     Using radial grid of 1289 points,  3 beta functions with: 
                l(1) =   1
                l(2) =   2
                l(3) =   3

     atomic species   valence    mass     pseudopotential
        H              1.00     1.00794     H ( 1.00)
        Th             4.00   232.03806     Th( 1.00)

     24 Sym. Ops., with inversion, found



   Cartesian axes

     site n.     atom                  positions (alat units)
         1           Th  tau(   1) = (   0.5000000   0.2886751   1.1185734  )
         2           Th  tau(   2) = (   0.0000000   0.5773503   0.3728578  )
         3           H   tau(   3) = (   0.0000000   0.0000000   0.3728578  )
         4           H   tau(   4) = (   0.0000000   0.0000000   1.1185734  )
         5           H   tau(   5) = (   0.5000000   0.2886751   0.2322958  )
         6           H   tau(   6) = (   0.0000000   0.5773503   0.9780114  )
         7           H   tau(   7) = (  -0.0000000   0.5773503   1.2591354  )
         8           H   tau(   8) = (   0.5000000   0.2886751   0.5134198  )
         9           H   tau(   9) = (   0.5000000   0.6068623   0.0916360  )
        10           H   tau(  10) = (   0.2244418   0.1295815   0.0916360  )
        11           H   tau(  11) = (   0.7755582   0.1295815   0.0916360  )
        12           H   tau(  12) = (   0.0000000   0.2591631   0.8373516  )
        13           H   tau(  13) = (   0.2755582   0.7364439   0.8373516  )
        14           H   tau(  14) = (  -0.2755582   0.7364439   0.8373516  )
        15           H   tau(  15) = (   0.2755582   0.7364439   1.3997952  )
        16           H   tau(  16) = (  -0.0000000   0.2591631   1.3997952  )
        17           H   tau(  17) = (  -0.2755582   0.7364439   1.3997952  )
        18           H   tau(  18) = (   0.2244418   0.1295815   0.6540796  )
        19           H   tau(  19) = (   0.5000000   0.6068623   0.6540796  )
        20           H   tau(  20) = (   0.7755582   0.1295815   0.6540796  )

     number of k points=  1872 (tetrahedron method)

     Number of k-points >= 100: set verbosity='high' to print them.

     Dense  grid:    43927 G-vectors     FFT dimensions: (  45,  45,  64)

     Estimated max dynamical RAM per process >       3.07 MB

     Estimated total dynamical RAM >      61.39 MB

     The potential is recalculated from file :
     ./_ph0/Th2H18.q_1/Th2H18.save/charge-density

     Starting wfcs are   50 atomic wfcs

     Band Structure Calculation
     Davidson diagonalization with overlap
     c_bands:  1 eigenvalues not converged
     c_bands:  1 eigenvalues not converged
     c_bands:  1 eigenvalues not converged
     c_bands:  1 eigenvalues not converged
     c_bands:  1 eigenvalues not converged
     c_bands:  1 eigenvalues not converged
     c_bands:  1 eigenvalues not converged
     c_bands:  1 eigenvalues not converged
     c_bands:  1 eigenvalues not converged
     c_bands:  1 eigenvalues not converged
     c_bands:  1 eigenvalues not converged
     c_bands:  1 eigenvalues not converged
     c_bands:  1 eigenvalues not converged
     c_bands:  1 eigenvalues not converged
     c_bands:  1 eigenvalues not converged
     c_bands:  1 eigenvalues not converged
     c_bands:  1 eigenvalues not converged
     c_bands:  1 eigenvalues not converged
     c_bands:  1 eigenvalues not converged
     c_bands:  1 eigenvalues not converged
     c_bands:  1 eigenvalues not converged
     c_bands:  1 eigenvalues not converged
     c_bands:  1 eigenvalues not converged
     c_bands:  1 eigenvalues not converged
     c_bands:  1 eigenvalues not converged
     c_bands:  1 eigenvalues not converged
     c_bands:  1 eigenvalues not converged
     c_bands:  1 eigenvalues not converged
     c_bands:  1 eigenvalues not converged
     c_bands:  1 eigenvalues not converged
     c_bands:  1 eigenvalues not converged
     c_bands:  1 eigenvalues not converged
     c_bands:  1 eigenvalues not converged
     c_bands:  1 eigenvalues not converged
     c_bands:  1 eigenvalues not converged
     c_bands:  1 eigenvalues not converged
     c_bands:  1 eigenvalues not converged
     c_bands:  1 eigenvalues not converged
     c_bands:  1 eigenvalues not converged
     c_bands:  1 eigenvalues not converged
     c_bands:  1 eigenvalues not converged
     c_bands:  1 eigenvalues not converged
     c_bands:  1 eigenvalues not converged
     c_bands:  1 eigenvalues not converged
     c_bands:  1 eigenvalues not converged
     c_bands:  1 eigenvalues not converged
     c_bands:  1 eigenvalues not converged
     c_bands:  1 eigenvalues not converged
     c_bands:  1 eigenvalues not converged
     c_bands:  1 eigenvalues not converged
     c_bands:  1 eigenvalues not converged
     c_bands:  1 eigenvalues not converged
     c_bands:  1 eigenvalues not converged
     c_bands:  1 eigenvalues not converged
     c_bands:  1 eigenvalues not converged
     c_bands:  1 eigenvalues not converged
     c_bands:  1 eigenvalues not converged
     c_bands:  1 eigenvalues not converged
     c_bands:  1 eigenvalues not converged
     c_bands:  1 eigenvalues not converged
     c_bands:  1 eigenvalues not converged
     c_bands:  1 eigenvalues not converged
     c_bands:  1 eigenvalues not converged
     c_bands:  1 eigenvalues not converged
     c_bands:  1 eigenvalues not converged
     c_bands:  1 eigenvalues not converged
     c_bands:  1 eigenvalues not converged
     c_bands:  1 eigenvalues not converged
     c_bands:  1 eigenvalues not converged
     c_bands:  1 eigenvalues not converged
     c_bands:  1 eigenvalues not converged
     c_bands:  1 eigenvalues not converged
     c_bands:  1 eigenvalues not converged
     c_bands:  1 eigenvalues not converged
     c_bands:  1 eigenvalues not converged
     c_bands:  1 eigenvalues not converged
     c_bands:  1 eigenvalues not converged
     c_bands:  1 eigenvalues not converged
     c_bands:  1 eigenvalues not converged
     c_bands:  1 eigenvalues not converged
     c_bands:  1 eigenvalues not converged
     c_bands:  1 eigenvalues not converged
     c_bands:  1 eigenvalues not converged
     c_bands:  1 eigenvalues not converged
     c_bands:  1 eigenvalues not converged
     c_bands:  1 eigenvalues not converged
     c_bands:  1 eigenvalues not converged
     c_bands:  1 eigenvalues not converged
     c_bands:  1 eigenvalues not converged
     c_bands:  1 eigenvalues not converged
     c_bands:  1 eigenvalues not converged
     c_bands:  1 eigenvalues not converged
     c_bands:  1 eigenvalues not converged
     c_bands:  1 eigenvalues not converged
     c_bands:  1 eigenvalues not converged
     c_bands:  1 eigenvalues not converged
     c_bands:  1 eigenvalues not converged
     c_bands:  1 eigenvalues not converged
     c_bands:  1 eigenvalues not converged
     c_bands:  1 eigenvalues not converged
     c_bands:  1 eigenvalues not converged
     c_bands:  1 eigenvalues not converged
     c_bands:  1 eigenvalues not converged
     c_bands:  1 eigenvalues not converged
     c_bands:  1 eigenvalues not converged
     c_bands:  1 eigenvalues not converged
     c_bands:  1 eigenvalues not converged
     c_bands:  1 eigenvalues not converged
     c_bands:  1 eigenvalues not converged
     c_bands:  1 eigenvalues not converged
     c_bands:  1 eigenvalues not converged
     c_bands:  1 eigenvalues not converged
     c_bands:  1 eigenvalues not converged
     c_bands:  1 eigenvalues not converged
     c_bands:  1 eigenvalues not converged
     c_bands:  1 eigenvalues not converged
     c_bands:  1 eigenvalues not converged
     c_bands:  1 eigenvalues not converged
     c_bands:  1 eigenvalues not converged
     c_bands:  1 eigenvalues not converged
     c_bands:  1 eigenvalues not converged
     c_bands:  1 eigenvalues not converged
     c_bands:  1 eigenvalues not converged
     c_bands:  1 eigenvalues not converged
     c_bands:  1 eigenvalues not converged
     c_bands:  1 eigenvalues not converged
     c_bands:  1 eigenvalues not converged
     c_bands:  1 eigenvalues not converged
     c_bands:  1 eigenvalues not converged
     c_bands:  1 eigenvalues not converged
     c_bands:  1 eigenvalues not converged
     c_bands:  1 eigenvalues not converged
     c_bands:  1 eigenvalues not converged
     c_bands:  1 eigenvalues not converged
     c_bands:  1 eigenvalues not converged
     c_bands:  1 eigenvalues not converged
     c_bands:  1 eigenvalues not converged
     c_bands:  1 eigenvalues not converged
     c_bands:  1 eigenvalues not converged
     c_bands:  1 eigenvalues not converged
     c_bands:  1 eigenvalues not converged
     c_bands:  1 eigenvalues not converged
     c_bands:  1 eigenvalues not converged
     c_bands:  1 eigenvalues not converged
     c_bands:  1 eigenvalues not converged
     c_bands:  1 eigenvalues not converged
     c_bands:  1 eigenvalues not converged
     c_bands:  1 eigenvalues not converged
     c_bands:  1 eigenvalues not converged
     c_bands:  1 eigenvalues not converged
     c_bands:  1 eigenvalues not converged
     c_bands:  1 eigenvalues not converged
     c_bands:  1 eigenvalues not converged
     c_bands:  1 eigenvalues not converged
     c_bands:  1 eigenvalues not converged
     c_bands:  1 eigenvalues not converged
     c_bands:  1 eigenvalues not converged
     c_bands:  1 eigenvalues not converged
     c_bands:  1 eigenvalues not converged
     c_bands:  1 eigenvalues not converged
     c_bands:  1 eigenvalues not converged
     c_bands:  1 eigenvalues not converged
     c_bands:  1 eigenvalues not converged
     c_bands:  1 eigenvalues not converged
     c_bands:  1 eigenvalues not converged
     c_bands:  1 eigenvalues not converged
     c_bands:  1 eigenvalues not converged
     c_bands:  1 eigenvalues not converged
     c_bands:  1 eigenvalues not converged
     c_bands:  1 eigenvalues not converged
     c_bands:  1 eigenvalues not converged
     c_bands:  1 eigenvalues not converged
     c_bands:  1 eigenvalues not converged
     c_bands:  1 eigenvalues not converged
     c_bands:  1 eigenvalues not converged
     c_bands:  1 eigenvalues not converged
     c_bands:  1 eigenvalues not converged
     c_bands:  1 eigenvalues not converged
     c_bands:  1 eigenvalues not converged
     c_bands:  1 eigenvalues not converged
     c_bands:  1 eigenvalues not converged
     c_bands:  1 eigenvalues not converged
     c_bands:  1 eigenvalues not converged
     c_bands:  1 eigenvalues not converged
     c_bands:  1 eigenvalues not converged
     c_bands:  1 eigenvalues not converged
     c_bands:  1 eigenvalues not converged
     c_bands:  1 eigenvalues not converged
     c_bands:  1 eigenvalues not converged
     c_bands:  1 eigenvalues not converged
     c_bands:  1 eigenvalues not converged
     c_bands:  1 eigenvalues not converged
     c_bands:  1 eigenvalues not converged
     c_bands:  1 eigenvalues not converged
     c_bands:  1 eigenvalues not converged
     c_bands:  1 eigenvalues not converged
     c_bands:  1 eigenvalues not converged
     c_bands:  1 eigenvalues not converged
     c_bands:  1 eigenvalues not converged
     c_bands:  1 eigenvalues not converged
     c_bands:  1 eigenvalues not converged
     c_bands:  1 eigenvalues not converged
     c_bands:  1 eigenvalues not converged
     c_bands:  1 eigenvalues not converged
     c_bands:  1 eigenvalues not converged
     c_bands:  1 eigenvalues not converged
     c_bands:  1 eigenvalues not converged
     c_bands:  1 eigenvalues not converged
     c_bands:  1 eigenvalues not converged
     c_bands:  1 eigenvalues not converged
     c_bands:  1 eigenvalues not converged

     ethr =  3.85E-11,  avg # of iterations = 75.0

     total cpu time spent up to now is      386.6 secs

     End of band structure calculation

     Number of k-points >= 100: set verbosity='high' to print the bands.

     the Fermi energy is    12.0947 ev

     Writing config to output data dir ./_ph0/Th2H18.q_1/Th2H18.save/
 
     [dfpt_tetra]  Dos(E_F)[/Ry] :   0.1566517E+02

     Electron-phonon coefficients for Th2H18                                    

     bravais-lattice index     =            4
     lattice parameter (alat)  =       7.0655  a.u.
     unit-cell volume          =     455.5684 (a.u.)^3
     number of atoms/cell      =           20
     number of atomic types    =            2
     kinetic-energy cut-off    =      80.0000  Ry
     charge density cut-off    =     320.0000  Ry
     convergence threshold     =      1.0E-08
     beta                      =       0.7000
     number of iterations used =            4
     Exchange-correlation= PZ
                           (   1   1   0   0   0   0   0)


     celldm(1)=    7.06545  celldm(2)=    0.00000  celldm(3)=    1.49143
     celldm(4)=    0.00000  celldm(5)=    0.00000  celldm(6)=    0.00000

     crystal axes: (cart. coord. in units of alat)
               a(1) = (  1.0000  0.0000  0.0000 )  
               a(2) = ( -0.5000  0.8660  0.0000 )  
               a(3) = (  0.0000  0.0000  1.4914 )  

     reciprocal axes: (cart. coord. in units 2 pi/alat)
               b(1) = (  1.0000  0.5774  0.0000 )  
               b(2) = (  0.0000  1.1547  0.0000 )  
               b(3) = (  0.0000  0.0000  0.6705 )  


     Atoms inside the unit cell: 

     Cartesian axes

     site n.  atom      mass           positions (alat units)
        1     Th 232.0381   tau(    1) = (    0.50000    0.28868    1.11857  )
        2     Th 232.0381   tau(    2) = (    0.00000    0.57735    0.37286  )
        3     H    1.0079   tau(    3) = (    0.00000    0.00000    0.37286  )
        4     H    1.0079   tau(    4) = (    0.00000    0.00000    1.11857  )
        5     H    1.0079   tau(    5) = (    0.50000    0.28868    0.23230  )
        6     H    1.0079   tau(    6) = (    0.00000    0.57735    0.97801  )
        7     H    1.0079   tau(    7) = (   -0.00000    0.57735    1.25914  )
        8     H    1.0079   tau(    8) = (    0.50000    0.28868    0.51342  )
        9     H    1.0079   tau(    9) = (    0.50000    0.60686    0.09164  )
       10     H    1.0079   tau(   10) = (    0.22444    0.12958    0.09164  )
       11     H    1.0079   tau(   11) = (    0.77556    0.12958    0.09164  )
       12     H    1.0079   tau(   12) = (    0.00000    0.25916    0.83735  )
       13     H    1.0079   tau(   13) = (    0.27556    0.73644    0.83735  )
       14     H    1.0079   tau(   14) = (   -0.27556    0.73644    0.83735  )
       15     H    1.0079   tau(   15) = (    0.27556    0.73644    1.39980  )
       16     H    1.0079   tau(   16) = (   -0.00000    0.25916    1.39980  )
       17     H    1.0079   tau(   17) = (   -0.27556    0.73644    1.39980  )
       18     H    1.0079   tau(   18) = (    0.22444    0.12958    0.65408  )
       19     H    1.0079   tau(   19) = (    0.50000    0.60686    0.65408  )
       20     H    1.0079   tau(   20) = (    0.77556    0.12958    0.65408  )

     Computing dynamical matrix for 
                    q = (   0.1250000   0.2165064   0.0838121 )
 
      2 Sym.Ops. (no q -> -q+G )


     G cutoff =  404.6412  (   2195 G-vectors)     FFT grid: ( 45, 45, 64)
     number of k points=  1872

     PseudoPot. # 1 for H  read from file:
     ./H.UPF
     MD5 check sum: df8e43189db5a2d7f03d0dd74d71ce72
     Pseudo is Norm-conserving, Zval =  1.0
     Generated in analytical, separable form
     Using radial grid of  929 points,  0 beta functions with: 

     PseudoPot. # 2 for Th read from file:
     ./Th.UPF
     MD5 check sum: a439cebac19eeec3fe133fa10c950477
     Pseudo is Norm-conserving + core correction, Zval =  4.0
     Generated using "atomic" code by A. Dal Corso  v.5.0.99 svn rev. 10869
     Using radial grid of 1289 points,  3 beta functions with: 
                l(1) =   1
                l(2) =   2
                l(3) =   3

     Mode symmetry, C_s (m)     point group:


     Atomic displacements:
     There are   60 irreducible representations

     Representation     1      1 modes -  To be done

     Representation     2      1 modes -  To be done

     Representation     3      1 modes -  To be done

     Representation     4      1 modes -  To be done

     Representation     5      1 modes -  To be done

     Representation     6      1 modes -  To be done

     Representation     7      1 modes -  To be done

     Representation     8      1 modes -  To be done

     Representation     9      1 modes -  To be done

     Representation    10      1 modes -  To be done

     Representation    11      1 modes -  To be done

     Representation    12      1 modes -  To be done

     Representation    13      1 modes -  To be done

     Representation    14      1 modes -  To be done

     Representation    15      1 modes -  To be done

     Representation    16      1 modes -  To be done

     Representation    17      1 modes -  To be done

     Representation    18      1 modes -  To be done

     Representation    19      1 modes -  To be done

     Representation    20      1 modes -  To be done

     Representation    21      1 modes -  To be done

     Representation    22      1 modes -  To be done

     Representation    23      1 modes -  To be done

     Representation    24      1 modes -  To be done

     Representation    25      1 modes -  To be done

     Representation    26      1 modes -  To be done

     Representation    27      1 modes -  To be done

     Representation    28      1 modes -  To be done

     Representation    29      1 modes -  To be done

     Representation    30      1 modes -  To be done

     Representation    31      1 modes -  To be done

     Representation    32      1 modes -  To be done

     Representation    33      1 modes -  To be done

     Representation    34      1 modes -  To be done

     Representation    35      1 modes -  To be done

     Representation    36      1 modes -  To be done

     Representation    37      1 modes -  To be done

     Representation    38      1 modes -  To be done

     Representation    39      1 modes -  To be done

     Representation    40      1 modes -  To be done

     Representation    41      1 modes -  To be done

     Representation    42      1 modes -  To be done

     Representation    43      1 modes -  To be done

     Representation    44      1 modes -  To be done

     Representation    45      1 modes -  To be done

     Representation    46      1 modes -  To be done

     Representation    47      1 modes -  To be done

     Representation    48      1 modes -  To be done

     Representation    49      1 modes -  To be done

     Representation    50      1 modes -  To be done

     Representation    51      1 modes -  To be done

     Representation    52      1 modes -  To be done

     Representation    53      1 modes -  To be done

     Representation    54      1 modes -  To be done

     Representation    55      1 modes -  To be done

     Representation    56      1 modes -  To be done

     Representation    57      1 modes -  To be done

     Representation    58      1 modes -  To be done

     Representation    59      1 modes -  To be done

     Representation    60      1 modes -  To be done



     Alpha used in Ewald sum =   2.8000
     PHONON       :   6m19.19s CPU   6m35.27s WALL



     Representation #   1 mode #   1

     Self-consistent Calculation

      iter #   1 total cpu time :   424.1 secs   av.it.:   5.0
      thresh= 1.000E-02 alpha_mix =  0.700 |ddv_scf|^2 =  3.380E-05

      iter #   2 total cpu time :   483.1 secs   av.it.:  13.1
      thresh= 5.813E-04 alpha_mix =  0.700 |ddv_scf|^2 =  5.830E-03

      iter #   3 total cpu time :   524.5 secs   av.it.:   8.6
      thresh= 7.635E-03 alpha_mix =  0.700 |ddv_scf|^2 =  2.496E-08

      iter #   4 total cpu time :   586.3 secs   av.it.:  14.2
      thresh= 1.580E-05 alpha_mix =  0.700 |ddv_scf|^2 =  4.243E-08

      iter #   5 total cpu time :   640.1 secs   av.it.:  11.9
      thresh= 2.060E-05 alpha_mix =  0.700 |ddv_scf|^2 =  3.117E-10

     End of self-consistent calculation

     Convergence has been achieved 


     Representation #   2 mode #   2

     Self-consistent Calculation

      iter #   1 total cpu time :   671.1 secs   av.it.:   5.4
      thresh= 1.000E-02 alpha_mix =  0.700 |ddv_scf|^2 =  3.779E-05

      iter #   2 total cpu time :   729.7 secs   av.it.:  13.1
      thresh= 6.147E-04 alpha_mix =  0.700 |ddv_scf|^2 =  6.518E-03

      iter #   3 total cpu time :   773.8 secs   av.it.:   8.6
      thresh= 8.074E-03 alpha_mix =  0.700 |ddv_scf|^2 =  2.297E-08

      iter #   4 total cpu time :   839.8 secs   av.it.:  14.2
      thresh= 1.516E-05 alpha_mix =  0.700 |ddv_scf|^2 =  3.740E-08

      iter #   5 total cpu time :   895.3 secs   av.it.:  11.9
      thresh= 1.934E-05 alpha_mix =  0.700 |ddv_scf|^2 =  1.790E-10

     End of self-consistent calculation

     Convergence has been achieved 


     Representation #   3 mode #   3

     Self-consistent Calculation

      iter #   1 total cpu time :   925.9 secs   av.it.:   5.2
      thresh= 1.000E-02 alpha_mix =  0.700 |ddv_scf|^2 =  3.761E-05

      iter #   2 total cpu time :   985.6 secs   av.it.:  13.1
      thresh= 6.133E-04 alpha_mix =  0.700 |ddv_scf|^2 =  6.439E-03

      iter #   3 total cpu time :  1028.1 secs   av.it.:   8.6
      thresh= 8.024E-03 alpha_mix =  0.700 |ddv_scf|^2 =  3.766E-08

      iter #   4 total cpu time :  1089.5 secs   av.it.:  13.9
      thresh= 1.941E-05 alpha_mix =  0.700 |ddv_scf|^2 =  1.153E-08

      iter #   5 total cpu time :  1148.4 secs   av.it.:  12.9
      thresh= 1.074E-05 alpha_mix =  0.700 |ddv_scf|^2 =  9.969E-11

     End of self-consistent calculation

     Convergence has been achieved 


     Representation #   4 mode #   4

     Self-consistent Calculation

      iter #   1 total cpu time :  1178.9 secs   av.it.:   5.1
      thresh= 1.000E-02 alpha_mix =  0.700 |ddv_scf|^2 =  2.890E-05

      iter #   2 total cpu time :  1240.4 secs   av.it.:  13.1
      thresh= 5.376E-04 alpha_mix =  0.700 |ddv_scf|^2 =  4.958E-03

      iter #   3 total cpu time :  1283.3 secs   av.it.:   8.6
      thresh= 7.042E-03 alpha_mix =  0.700 |ddv_scf|^2 =  1.133E-08

      iter #   4 total cpu time :  1345.2 secs   av.it.:  14.3
      thresh= 1.065E-05 alpha_mix =  0.700 |ddv_scf|^2 =  3.085E-09

     End of self-consistent calculation

     Convergence has been achieved 


     Representation #   5 mode #   5

     Self-consistent Calculation

      iter #   1 total cpu time :  1374.7 secs   av.it.:   5.1
      thresh= 1.000E-02 alpha_mix =  0.700 |ddv_scf|^2 =  3.310E-05

      iter #   2 total cpu time :  1438.7 secs   av.it.:  13.1
      thresh= 5.753E-04 alpha_mix =  0.700 |ddv_scf|^2 =  5.666E-03

      iter #   3 total cpu time :  1481.0 secs   av.it.:   8.6
      thresh= 7.527E-03 alpha_mix =  0.700 |ddv_scf|^2 =  2.929E-08

      iter #   4 total cpu time :  1543.8 secs   av.it.:  13.5
      thresh= 1.711E-05 alpha_mix =  0.700 |ddv_scf|^2 =  9.379E-09

     End of self-consistent calculation

     Convergence has been achieved 


     Representation #   6 mode #   6

     Self-consistent Calculation

      iter #   1 total cpu time :  1574.6 secs   av.it.:   5.0
      thresh= 1.000E-02 alpha_mix =  0.700 |ddv_scf|^2 =  1.653E-05

      iter #   2 total cpu time :  1634.8 secs   av.it.:  13.1
      thresh= 4.066E-04 alpha_mix =  0.700 |ddv_scf|^2 =  2.836E-03

      iter #   3 total cpu time :  1681.0 secs   av.it.:   8.6
      thresh= 5.325E-03 alpha_mix =  0.700 |ddv_scf|^2 =  1.072E-08

      iter #   4 total cpu time :  1744.8 secs   av.it.:  14.4
      thresh= 1.036E-05 alpha_mix =  0.700 |ddv_scf|^2 =  6.773E-09

     End of self-consistent calculation

     Convergence has been achieved 


     Representation #   7 mode #   7

     Self-consistent Calculation

      iter #   1 total cpu time :  1773.6 secs   av.it.:   4.7
      thresh= 1.000E-02 alpha_mix =  0.700 |ddv_scf|^2 =  1.210E-05

      iter #   2 total cpu time :  1834.1 secs   av.it.:  13.1
      thresh= 3.479E-04 alpha_mix =  0.700 |ddv_scf|^2 =  2.058E-03

      iter #   3 total cpu time :  1877.2 secs   av.it.:   8.6
      thresh= 4.536E-03 alpha_mix =  0.700 |ddv_scf|^2 =  5.018E-08

      iter #   4 total cpu time :  1949.2 secs   av.it.:  13.3
      thresh= 2.240E-05 alpha_mix =  0.700 |ddv_scf|^2 =  1.548E-08

      iter #   5 total cpu time :  2005.9 secs   av.it.:  12.4
      thresh= 1.244E-05 alpha_mix =  0.700 |ddv_scf|^2 =  5.891E-11

     End of self-consistent calculation

     Convergence has been achieved 


     Representation #   8 mode #   8

     Self-consistent Calculation

      iter #   1 total cpu time :  2038.2 secs   av.it.:   5.0
      thresh= 1.000E-02 alpha_mix =  0.700 |ddv_scf|^2 =  2.107E-05

      iter #   2 total cpu time :  2114.2 secs   av.it.:  13.1
      thresh= 4.590E-04 alpha_mix =  0.700 |ddv_scf|^2 =  3.614E-03

      iter #   3 total cpu time :  2159.0 secs   av.it.:   8.6
      thresh= 6.012E-03 alpha_mix =  0.700 |ddv_scf|^2 =  8.681E-09

     End of self-consistent calculation

     Convergence has been achieved 


     Representation #   9 mode #   9

     Self-consistent Calculation

      iter #   1 total cpu time :  2192.5 secs   av.it.:   6.1
      thresh= 1.000E-02 alpha_mix =  0.700 |ddv_scf|^2 =  4.943E-05

      iter #   2 total cpu time :  2255.4 secs   av.it.:  13.1
      thresh= 7.031E-04 alpha_mix =  0.700 |ddv_scf|^2 =  8.468E-03

      iter #   3 total cpu time :  2298.1 secs   av.it.:   8.6
      thresh= 9.202E-03 alpha_mix =  0.700 |ddv_scf|^2 =  3.772E-08

      iter #   4 total cpu time :  2361.1 secs   av.it.:  13.6
      thresh= 1.942E-05 alpha_mix =  0.700 |ddv_scf|^2 =  4.648E-09

     End of self-consistent calculation

     Convergence has been achieved 


     Representation #  10 mode #  10

     Self-consistent Calculation

      iter #   1 total cpu time :  2389.0 secs   av.it.:   4.6
      thresh= 1.000E-02 alpha_mix =  0.700 |ddv_scf|^2 =  1.091E-06

      iter #   2 total cpu time :  2450.9 secs   av.it.:  13.3
      thresh= 1.044E-04 alpha_mix =  0.700 |ddv_scf|^2 =  1.821E-04

      iter #   3 total cpu time :  2493.2 secs   av.it.:   8.6
      thresh= 1.349E-03 alpha_mix =  0.700 |ddv_scf|^2 =  8.939E-09

     End of self-consistent calculation

     Convergence has been achieved 


     Representation #  11 mode #  11

     Self-consistent Calculation

      iter #   1 total cpu time :  2522.1 secs   av.it.:   4.6
      thresh= 1.000E-02 alpha_mix =  0.700 |ddv_scf|^2 =  5.252E-06

      iter #   2 total cpu time :  2585.1 secs   av.it.:  13.1
      thresh= 2.292E-04 alpha_mix =  0.700 |ddv_scf|^2 =  8.950E-04

      iter #   3 total cpu time :  2628.0 secs   av.it.:   8.6
      thresh= 2.992E-03 alpha_mix =  0.700 |ddv_scf|^2 =  1.048E-08

      iter #   4 total cpu time :  2688.9 secs   av.it.:  13.8
      thresh= 1.024E-05 alpha_mix =  0.700 |ddv_scf|^2 =  1.549E-09

     End of self-consistent calculation

     Convergence has been achieved 


     Representation #  12 mode #  12

     Self-consistent Calculation

      iter #   1 total cpu time :  2718.0 secs   av.it.:   4.8
      thresh= 1.000E-02 alpha_mix =  0.700 |ddv_scf|^2 =  7.675E-06

      iter #   2 total cpu time :  2782.4 secs   av.it.:  13.1
      thresh= 2.770E-04 alpha_mix =  0.700 |ddv_scf|^2 =  1.320E-03

      iter #   3 total cpu time :  2824.5 secs   av.it.:   8.6
      thresh= 3.633E-03 alpha_mix =  0.700 |ddv_scf|^2 =  1.635E-09

     End of self-consistent calculation

     Convergence has been achieved 


     Representation #  13 mode #  13

     Self-consistent Calculation

      iter #   1 total cpu time :  2850.4 secs   av.it.:   4.1
      thresh= 1.000E-02 alpha_mix =  0.700 |ddv_scf|^2 =  2.437E-06

      iter #   2 total cpu time :  2916.9 secs   av.it.:  13.1
      thresh= 1.561E-04 alpha_mix =  0.700 |ddv_scf|^2 =  4.116E-04

      iter #   3 total cpu time :  2959.5 secs   av.it.:   8.6
      thresh= 2.029E-03 alpha_mix =  0.700 |ddv_scf|^2 =  1.761E-08

      iter #   4 total cpu time :  3017.6 secs   av.it.:  12.9
      thresh= 1.327E-05 alpha_mix =  0.700 |ddv_scf|^2 =  5.913E-09

     End of self-consistent calculation

     Convergence has been achieved 


     Representation #  14 mode #  14

     Self-consistent Calculation

      iter #   1 total cpu time :  3053.3 secs   av.it.:   6.7
      thresh= 1.000E-02 alpha_mix =  0.700 |ddv_scf|^2 =  3.700E-04

      iter #   2 total cpu time :  3112.5 secs   av.it.:  13.1
      thresh= 1.924E-03 alpha_mix =  0.700 |ddv_scf|^2 =  6.324E-02

      iter #   3 total cpu time :  3162.8 secs   av.it.:  10.2
      thresh= 1.000E-02 alpha_mix =  0.700 |ddv_scf|^2 =  5.488E-07

      iter #   4 total cpu time :  3217.9 secs   av.it.:  12.1
      thresh= 7.408E-05 alpha_mix =  0.700 |ddv_scf|^2 =  1.325E-07

      iter #   5 total cpu time :  3282.0 secs   av.it.:  11.4
      thresh= 3.640E-05 alpha_mix =  0.700 |ddv_scf|^2 =  1.387E-10

     End of self-consistent calculation

     Convergence has been achieved 


     Representation #  15 mode #  15

     Self-consistent Calculation

      iter #   1 total cpu time :  3311.0 secs   av.it.:   4.9
      thresh= 1.000E-02 alpha_mix =  0.700 |ddv_scf|^2 =  1.097E-05

      iter #   2 total cpu time :  3370.8 secs   av.it.:  13.1
      thresh= 3.312E-04 alpha_mix =  0.700 |ddv_scf|^2 =  1.889E-03

      iter #   3 total cpu time :  3412.9 secs   av.it.:   8.6
      thresh= 4.346E-03 alpha_mix =  0.700 |ddv_scf|^2 =  2.609E-09

     End of self-consistent calculation

     Convergence has been achieved 


     Representation #  16 mode #  16

     Self-consistent Calculation

      iter #   1 total cpu time :  3441.8 secs   av.it.:   4.7
      thresh= 1.000E-02 alpha_mix =  0.700 |ddv_scf|^2 =  5.964E-06

      iter #   2 total cpu time :  3501.3 secs   av.it.:  13.1
      thresh= 2.442E-04 alpha_mix =  0.700 |ddv_scf|^2 =  1.021E-03

      iter #   3 total cpu time :  3542.9 secs   av.it.:   8.6
      thresh= 3.195E-03 alpha_mix =  0.700 |ddv_scf|^2 =  3.007E-09

     End of self-consistent calculation

     Convergence has been achieved 


     Representation #  17 mode #  17

     Self-consistent Calculation

      iter #   1 total cpu time :  3570.9 secs   av.it.:   4.5
      thresh= 1.000E-02 alpha_mix =  0.700 |ddv_scf|^2 =  3.905E-06

      iter #   2 total cpu time :  3637.4 secs   av.it.:  13.1
      thresh= 1.976E-04 alpha_mix =  0.700 |ddv_scf|^2 =  6.632E-04

      iter #   3 total cpu time :  3678.6 secs   av.it.:   8.6
      thresh= 2.575E-03 alpha_mix =  0.700 |ddv_scf|^2 =  1.220E-08

      iter #   4 total cpu time :  3738.7 secs   av.it.:  13.6
      thresh= 1.105E-05 alpha_mix =  0.700 |ddv_scf|^2 =  6.730E-09

     End of self-consistent calculation

     Convergence has been achieved 


     Representation #  18 mode #  18

     Self-consistent Calculation

      iter #   1 total cpu time :  3768.6 secs   av.it.:   4.9
      thresh= 1.000E-02 alpha_mix =  0.700 |ddv_scf|^2 =  1.137E-05

      iter #   2 total cpu time :  3827.1 secs   av.it.:  13.1
      thresh= 3.372E-04 alpha_mix =  0.700 |ddv_scf|^2 =  1.954E-03

      iter #   3 total cpu time :  3872.9 secs   av.it.:   8.6
      thresh= 4.420E-03 alpha_mix =  0.700 |ddv_scf|^2 =  4.694E-09

     End of self-consistent calculation

     Convergence has been achieved 


     Representation #  19 mode #  19

     Self-consistent Calculation

      iter #   1 total cpu time :  3910.6 secs   av.it.:   4.8
      thresh= 1.000E-02 alpha_mix =  0.700 |ddv_scf|^2 =  7.439E-06

      iter #   2 total cpu time :  3979.4 secs   av.it.:  13.2
      thresh= 2.727E-04 alpha_mix =  0.700 |ddv_scf|^2 =  1.290E-03

      iter #   3 total cpu time :  4023.6 secs   av.it.:   8.6
      thresh= 3.591E-03 alpha_mix =  0.700 |ddv_scf|^2 =  3.006E-08

      iter #   4 total cpu time :  4095.5 secs   av.it.:  13.3
      thresh= 1.734E-05 alpha_mix =  0.700 |ddv_scf|^2 =  2.492E-08

      iter #   5 total cpu time :  4148.3 secs   av.it.:  11.6
      thresh= 1.579E-05 alpha_mix =  0.700 |ddv_scf|^2 =  4.776E-11

     End of self-consistent calculation

     Convergence has been achieved 


     Representation #  20 mode #  20

     Self-consistent Calculation

      iter #   1 total cpu time :  4177.9 secs   av.it.:   4.8
      thresh= 1.000E-02 alpha_mix =  0.700 |ddv_scf|^2 =  1.926E-05

      iter #   2 total cpu time :  4248.9 secs   av.it.:  13.1
      thresh= 4.389E-04 alpha_mix =  0.700 |ddv_scf|^2 =  3.322E-03

      iter #   3 total cpu time :  4291.3 secs   av.it.:   8.6
      thresh= 5.764E-03 alpha_mix =  0.700 |ddv_scf|^2 =  1.218E-08

      iter #   4 total cpu time :  4352.0 secs   av.it.:  14.2
      thresh= 1.104E-05 alpha_mix =  0.700 |ddv_scf|^2 =  2.095E-08

      iter #   5 total cpu time :  4404.2 secs   av.it.:  11.9
      thresh= 1.447E-05 alpha_mix =  0.700 |ddv_scf|^2 =  7.722E-11

     End of self-consistent calculation

     Convergence has been achieved 


     Representation #  21 mode #  21

     Self-consistent Calculation

      iter #   1 total cpu time :  4431.4 secs   av.it.:   4.5
      thresh= 1.000E-02 alpha_mix =  0.700 |ddv_scf|^2 =  1.680E-07

      iter #   2 total cpu time :  4491.9 secs   av.it.:  13.5
      thresh= 4.099E-05 alpha_mix =  0.700 |ddv_scf|^2 =  2.227E-05

      iter #   3 total cpu time :  4534.0 secs   av.it.:   8.7
      thresh= 4.719E-04 alpha_mix =  0.700 |ddv_scf|^2 =  7.451E-08

      iter #   4 total cpu time :  4592.7 secs   av.it.:  11.9
      thresh= 2.730E-05 alpha_mix =  0.700 |ddv_scf|^2 =  4.352E-09

     End of self-consistent calculation

     Convergence has been achieved 


     Representation #  22 mode #  22

     Self-consistent Calculation

      iter #   1 total cpu time :  4634.8 secs   av.it.:   4.9
      thresh= 1.000E-02 alpha_mix =  0.700 |ddv_scf|^2 =  1.690E-05

      iter #   2 total cpu time :  4699.4 secs   av.it.:  13.1
      thresh= 4.111E-04 alpha_mix =  0.700 |ddv_scf|^2 =  2.900E-03

      iter #   3 total cpu time :  4746.9 secs   av.it.:   8.6
      thresh= 5.385E-03 alpha_mix =  0.700 |ddv_scf|^2 =  6.876E-09

     End of self-consistent calculation

     Convergence has been achieved 


     Representation #  23 mode #  23

     Self-consistent Calculation

      iter #   1 total cpu time :  4778.0 secs   av.it.:   5.3
      thresh= 1.000E-02 alpha_mix =  0.700 |ddv_scf|^2 =  3.074E-05

      iter #   2 total cpu time :  4835.7 secs   av.it.:  13.1
      thresh= 5.545E-04 alpha_mix =  0.700 |ddv_scf|^2 =  5.288E-03

      iter #   3 total cpu time :  4879.1 secs   av.it.:   8.6
      thresh= 7.272E-03 alpha_mix =  0.700 |ddv_scf|^2 =  1.157E-08

      iter #   4 total cpu time :  4942.4 secs   av.it.:  14.8
      thresh= 1.076E-05 alpha_mix =  0.700 |ddv_scf|^2 =  1.317E-08

      iter #   5 total cpu time :  4999.2 secs   av.it.:  12.6
      thresh= 1.148E-05 alpha_mix =  0.700 |ddv_scf|^2 =  1.046E-10

     End of self-consistent calculation

     Convergence has been achieved 


     Representation #  24 mode #  24

     Self-consistent Calculation

      iter #   1 total cpu time :  5029.2 secs   av.it.:   5.2
      thresh= 1.000E-02 alpha_mix =  0.700 |ddv_scf|^2 =  3.108E-05

      iter #   2 total cpu time :  5087.6 secs   av.it.:  13.1
      thresh= 5.575E-04 alpha_mix =  0.700 |ddv_scf|^2 =  5.317E-03

      iter #   3 total cpu time :  5129.1 secs   av.it.:   8.6
      thresh= 7.292E-03 alpha_mix =  0.700 |ddv_scf|^2 =  4.007E-08

      iter #   4 total cpu time :  5189.6 secs   av.it.:  13.8
      thresh= 2.002E-05 alpha_mix =  0.700 |ddv_scf|^2 =  1.278E-08

      iter #   5 total cpu time :  5251.5 secs   av.it.:  12.9
      thresh= 1.131E-05 alpha_mix =  0.700 |ddv_scf|^2 =  3.939E-11

     End of self-consistent calculation

     Convergence has been achieved 


     Representation #  25 mode #  25

     Self-consistent Calculation

      iter #   1 total cpu time :  5280.7 secs   av.it.:   4.9
      thresh= 1.000E-02 alpha_mix =  0.700 |ddv_scf|^2 =  8.533E-06

      iter #   2 total cpu time :  5339.8 secs   av.it.:  13.2
      thresh= 2.921E-04 alpha_mix =  0.700 |ddv_scf|^2 =  1.475E-03

      iter #   3 total cpu time :  5381.5 secs   av.it.:   8.6
      thresh= 3.841E-03 alpha_mix =  0.700 |ddv_scf|^2 =  2.454E-08

      iter #   4 total cpu time :  5441.9 secs   av.it.:  13.8
      thresh= 1.566E-05 alpha_mix =  0.700 |ddv_scf|^2 =  3.048E-08

      iter #   5 total cpu time :  5495.1 secs   av.it.:  11.8
      thresh= 1.746E-05 alpha_mix =  0.700 |ddv_scf|^2 =  1.129E-10

     End of self-consistent calculation

     Convergence has been achieved 


     Representation #  26 mode #  26

     Self-consistent Calculation

      iter #   1 total cpu time :  5525.2 secs   av.it.:   4.7
      thresh= 1.000E-02 alpha_mix =  0.700 |ddv_scf|^2 =  6.098E-06

      iter #   2 total cpu time :  5591.7 secs   av.it.:  13.2
      thresh= 2.469E-04 alpha_mix =  0.700 |ddv_scf|^2 =  1.048E-03

      iter #   3 total cpu time :  5633.8 secs   av.it.:   8.6
      thresh= 3.237E-03 alpha_mix =  0.700 |ddv_scf|^2 =  8.638E-09

     End of self-consistent calculation

     Convergence has been achieved 


     Representation #  27 mode #  27

     Self-consistent Calculation

      iter #   1 total cpu time :  5664.6 secs   av.it.:   5.3
      thresh= 1.000E-02 alpha_mix =  0.700 |ddv_scf|^2 =  3.126E-05

      iter #   2 total cpu time :  5729.1 secs   av.it.:  13.1
      thresh= 5.591E-04 alpha_mix =  0.700 |ddv_scf|^2 =  5.390E-03

      iter #   3 total cpu time :  5771.3 secs   av.it.:   8.6
      thresh= 7.341E-03 alpha_mix =  0.700 |ddv_scf|^2 =  1.606E-08

      iter #   4 total cpu time :  5834.0 secs   av.it.:  14.4
      thresh= 1.267E-05 alpha_mix =  0.700 |ddv_scf|^2 =  2.435E-08

      iter #   5 total cpu time :  5888.8 secs   av.it.:  12.1
      thresh= 1.561E-05 alpha_mix =  0.700 |ddv_scf|^2 =  7.633E-11

     End of self-consistent calculation

     Convergence has been achieved 


     Representation #  28 mode #  28

     Self-consistent Calculation

      iter #   1 total cpu time :  5924.9 secs   av.it.:   6.6
      thresh= 1.000E-02 alpha_mix =  0.700 |ddv_scf|^2 =  2.871E-04

      iter #   2 total cpu time :  5984.9 secs   av.it.:  13.1
      thresh= 1.694E-03 alpha_mix =  0.700 |ddv_scf|^2 =  4.900E-02

      iter #   3 total cpu time :  6032.6 secs   av.it.:  10.0
      thresh= 1.000E-02 alpha_mix =  0.700 |ddv_scf|^2 =  6.254E-07

      iter #   4 total cpu time :  6096.8 secs   av.it.:  12.4
      thresh= 7.908E-05 alpha_mix =  0.700 |ddv_scf|^2 =  2.133E-07

      iter #   5 total cpu time :  6149.9 secs   av.it.:  11.5
      thresh= 4.618E-05 alpha_mix =  0.700 |ddv_scf|^2 =  5.178E-11

     End of self-consistent calculation

     Convergence has been achieved 


     Representation #  29 mode #  29

     Self-consistent Calculation

      iter #   1 total cpu time :  6181.9 secs   av.it.:   4.8
      thresh= 1.000E-02 alpha_mix =  0.700 |ddv_scf|^2 =  1.406E-05

      iter #   2 total cpu time :  6252.9 secs   av.it.:  13.1
      thresh= 3.749E-04 alpha_mix =  0.700 |ddv_scf|^2 =  2.425E-03

      iter #   3 total cpu time :  6294.7 secs   av.it.:   8.6
      thresh= 4.925E-03 alpha_mix =  0.700 |ddv_scf|^2 =  1.083E-08

      iter #   4 total cpu time :  6357.4 secs   av.it.:  14.1
      thresh= 1.041E-05 alpha_mix =  0.700 |ddv_scf|^2 =  1.679E-08

      iter #   5 total cpu time :  6411.6 secs   av.it.:  11.8
      thresh= 1.296E-05 alpha_mix =  0.700 |ddv_scf|^2 =  1.809E-10

     End of self-consistent calculation

     Convergence has been achieved 


     Representation #  30 mode #  30

     Self-consistent Calculation

      iter #   1 total cpu time :  6442.6 secs   av.it.:   5.3
      thresh= 1.000E-02 alpha_mix =  0.700 |ddv_scf|^2 =  4.527E-05

      iter #   2 total cpu time :  6504.6 secs   av.it.:  13.1
      thresh= 6.728E-04 alpha_mix =  0.700 |ddv_scf|^2 =  7.752E-03

      iter #   3 total cpu time :  6548.6 secs   av.it.:   8.6
      thresh= 8.804E-03 alpha_mix =  0.700 |ddv_scf|^2 =  4.510E-08

      iter #   4 total cpu time :  6611.1 secs   av.it.:  14.0
      thresh= 2.124E-05 alpha_mix =  0.700 |ddv_scf|^2 =  1.475E-08

      iter #   5 total cpu time :  6672.7 secs   av.it.:  13.0
      thresh= 1.214E-05 alpha_mix =  0.700 |ddv_scf|^2 =  1.306E-10

     End of self-consistent calculation

     Convergence has been achieved 


     Representation #  31 mode #  31

     Self-consistent Calculation

      iter #   1 total cpu time :  6705.2 secs   av.it.:   4.7
      thresh= 1.000E-02 alpha_mix =  0.700 |ddv_scf|^2 =  6.797E-08

      iter #   2 total cpu time :  6775.8 secs   av.it.:  14.2
      thresh= 2.607E-05 alpha_mix =  0.700 |ddv_scf|^2 =  1.173E-07

      iter #   3 total cpu time :  6835.8 secs   av.it.:  13.1
      thresh= 3.425E-05 alpha_mix =  0.700 |ddv_scf|^2 =  2.042E-08

      iter #   4 total cpu time :  6896.2 secs   av.it.:  12.3
      thresh= 1.429E-05 alpha_mix =  0.700 |ddv_scf|^2 =  1.249E-09

     End of self-consistent calculation

     Convergence has been achieved 


     Representation #  32 mode #  32

     Self-consistent Calculation

      iter #   1 total cpu time :  6925.3 secs   av.it.:   4.7
      thresh= 1.000E-02 alpha_mix =  0.700 |ddv_scf|^2 =  2.430E-07

      iter #   2 total cpu time :  6998.1 secs   av.it.:  14.1
      thresh= 4.929E-05 alpha_mix =  0.700 |ddv_scf|^2 =  1.511E-06

      iter #   3 total cpu time :  7055.9 secs   av.it.:  12.1
      thresh= 1.229E-04 alpha_mix =  0.700 |ddv_scf|^2 =  8.020E-09

     End of self-consistent calculation

     Convergence has been achieved 


     Representation #  33 mode #  33

     Self-consistent Calculation

      iter #   1 total cpu time :  7085.1 secs   av.it.:   4.8
      thresh= 1.000E-02 alpha_mix =  0.700 |ddv_scf|^2 =  2.094E-07

      iter #   2 total cpu time :  7148.6 secs   av.it.:  14.3
      thresh= 4.576E-05 alpha_mix =  0.700 |ddv_scf|^2 =  1.360E-06

      iter #   3 total cpu time :  7209.5 secs   av.it.:  12.2
      thresh= 1.166E-04 alpha_mix =  0.700 |ddv_scf|^2 =  6.707E-09

     End of self-consistent calculation

     Convergence has been achieved 


     Representation #  34 mode #  34

     Self-consistent Calculation

      iter #   1 total cpu time :  7243.0 secs   av.it.:   6.1
      thresh= 1.000E-02 alpha_mix =  0.700 |ddv_scf|^2 =  1.563E-06

      iter #   2 total cpu time :  7304.6 secs   av.it.:  13.8
      thresh= 1.250E-04 alpha_mix =  0.700 |ddv_scf|^2 =  9.008E-06

      iter #   3 total cpu time :  7362.0 secs   av.it.:  12.0
      thresh= 3.001E-04 alpha_mix =  0.700 |ddv_scf|^2 =  9.173E-08

      iter #   4 total cpu time :  7418.7 secs   av.it.:  12.8
      thresh= 3.029E-05 alpha_mix =  0.700 |ddv_scf|^2 =  9.507E-10

     End of self-consistent calculation

     Convergence has been achieved 


     Representation #  35 mode #  35

     Self-consistent Calculation

      iter #   1 total cpu time :  7448.2 secs   av.it.:   5.0
      thresh= 1.000E-02 alpha_mix =  0.700 |ddv_scf|^2 =  4.305E-07

      iter #   2 total cpu time :  7512.2 secs   av.it.:  14.2
      thresh= 6.562E-05 alpha_mix =  0.700 |ddv_scf|^2 =  2.592E-06

      iter #   3 total cpu time :  7571.0 secs   av.it.:  12.2
      thresh= 1.610E-04 alpha_mix =  0.700 |ddv_scf|^2 =  2.825E-08

      iter #   4 total cpu time :  7628.1 secs   av.it.:  12.8
      thresh= 1.681E-05 alpha_mix =  0.700 |ddv_scf|^2 =  3.582E-10

     End of self-consistent calculation

     Convergence has been achieved 


     Representation #  36 mode #  36

     Self-consistent Calculation

      iter #   1 total cpu time :  7665.7 secs   av.it.:   4.7
      thresh= 1.000E-02 alpha_mix =  0.700 |ddv_scf|^2 =  1.737E-07

      iter #   2 total cpu time :  7728.1 secs   av.it.:  14.0
      thresh= 4.168E-05 alpha_mix =  0.700 |ddv_scf|^2 =  8.495E-07

      iter #   3 total cpu time :  7782.8 secs   av.it.:  12.2
      thresh= 9.217E-05 alpha_mix =  0.700 |ddv_scf|^2 =  1.865E-08

      iter #   4 total cpu time :  7843.4 secs   av.it.:  13.0
      thresh= 1.366E-05 alpha_mix =  0.700 |ddv_scf|^2 =  8.001E-10

     End of self-consistent calculation

     Convergence has been achieved 


     Representation #  37 mode #  37

     Self-consistent Calculation

      iter #   1 total cpu time :  7869.4 secs   av.it.:   4.4
      thresh= 1.000E-02 alpha_mix =  0.700 |ddv_scf|^2 =  1.209E-07

      iter #   2 total cpu time :  7932.3 secs   av.it.:  13.9
      thresh= 3.477E-05 alpha_mix =  0.700 |ddv_scf|^2 =  3.760E-07

      iter #   3 total cpu time :  7991.6 secs   av.it.:  12.5
      thresh= 6.132E-05 alpha_mix =  0.700 |ddv_scf|^2 =  2.783E-08

      iter #   4 total cpu time :  8048.2 secs   av.it.:  12.6
      thresh= 1.668E-05 alpha_mix =  0.700 |ddv_scf|^2 =  1.267E-09

     End of self-consistent calculation

     Convergence has been achieved 


     Representation #  38 mode #  38

     Self-consistent Calculation

      iter #   1 total cpu time :  8085.9 secs   av.it.:   5.2
      thresh= 1.000E-02 alpha_mix =  0.700 |ddv_scf|^2 =  5.153E-07

      iter #   2 total cpu time :  8153.8 secs   av.it.:  14.2
      thresh= 7.178E-05 alpha_mix =  0.700 |ddv_scf|^2 =  3.468E-06

      iter #   3 total cpu time :  8225.5 secs   av.it.:  12.2
      thresh= 1.862E-04 alpha_mix =  0.700 |ddv_scf|^2 =  1.531E-08

      iter #   4 total cpu time :  8283.5 secs   av.it.:  12.9
      thresh= 1.237E-05 alpha_mix =  0.700 |ddv_scf|^2 =  6.831E-10

     End of self-consistent calculation

     Convergence has been achieved 


     Representation #  39 mode #  39

     Self-consistent Calculation

      iter #   1 total cpu time :  8315.1 secs   av.it.:   4.7
      thresh= 1.000E-02 alpha_mix =  0.700 |ddv_scf|^2 =  1.784E-07

      iter #   2 total cpu time :  8379.7 secs   av.it.:  14.2
      thresh= 4.223E-05 alpha_mix =  0.700 |ddv_scf|^2 =  1.086E-06

      iter #   3 total cpu time :  8434.5 secs   av.it.:  12.2
      thresh= 1.042E-04 alpha_mix =  0.700 |ddv_scf|^2 =  7.502E-09

     End of self-consistent calculation

     Convergence has been achieved 


     Representation #  40 mode #  40

     Self-consistent Calculation

      iter #   1 total cpu time :  8464.3 secs   av.it.:   5.1
      thresh= 1.000E-02 alpha_mix =  0.700 |ddv_scf|^2 =  4.247E-07

      iter #   2 total cpu time :  8538.7 secs   av.it.:  14.3
      thresh= 6.517E-05 alpha_mix =  0.700 |ddv_scf|^2 =  2.953E-06

      iter #   3 total cpu time :  8595.8 secs   av.it.:  12.2
      thresh= 1.719E-04 alpha_mix =  0.700 |ddv_scf|^2 =  1.207E-08

      iter #   4 total cpu time :  8654.6 secs   av.it.:  12.9
      thresh= 1.098E-05 alpha_mix =  0.700 |ddv_scf|^2 =  6.905E-10

     End of self-consistent calculation

     Convergence has been achieved 


     Representation #  41 mode #  41

     Self-consistent Calculation

      iter #   1 total cpu time :  8682.6 secs   av.it.:   4.5
      thresh= 1.000E-02 alpha_mix =  0.700 |ddv_scf|^2 =  2.365E-07

      iter #   2 total cpu time :  8745.5 secs   av.it.:  13.6
      thresh= 4.863E-05 alpha_mix =  0.700 |ddv_scf|^2 =  8.968E-07

      iter #   3 total cpu time :  8800.7 secs   av.it.:  12.1
      thresh= 9.470E-05 alpha_mix =  0.700 |ddv_scf|^2 =  3.697E-08

      iter #   4 total cpu time :  8857.0 secs   av.it.:  12.6
      thresh= 1.923E-05 alpha_mix =  0.700 |ddv_scf|^2 =  1.018E-09

     End of self-consistent calculation

     Convergence has been achieved 


     Representation #  42 mode #  42

     Self-consistent Calculation

      iter #   1 total cpu time :  8897.3 secs   av.it.:   4.7
      thresh= 1.000E-02 alpha_mix =  0.700 |ddv_scf|^2 =  2.323E-07

      iter #   2 total cpu time :  8958.8 secs   av.it.:  13.9
      thresh= 4.820E-05 alpha_mix =  0.700 |ddv_scf|^2 =  1.034E-06

      iter #   3 total cpu time :  9016.2 secs   av.it.:  12.2
      thresh= 1.017E-04 alpha_mix =  0.700 |ddv_scf|^2 =  3.192E-08

      iter #   4 total cpu time :  9073.7 secs   av.it.:  12.8
      thresh= 1.787E-05 alpha_mix =  0.700 |ddv_scf|^2 =  6.777E-10

     End of self-consistent calculation

     Convergence has been achieved 


     Representation #  43 mode #  43

     Self-consistent Calculation

      iter #   1 total cpu time :  9104.3 secs   av.it.:   5.2
      thresh= 1.000E-02 alpha_mix =  0.700 |ddv_scf|^2 =  5.625E-07

      iter #   2 total cpu time :  9175.1 secs   av.it.:  14.2
      thresh= 7.500E-05 alpha_mix =  0.700 |ddv_scf|^2 =  3.934E-06

      iter #   3 total cpu time :  9230.2 secs   av.it.:  12.1
      thresh= 1.983E-04 alpha_mix =  0.700 |ddv_scf|^2 =  9.311E-09

     End of self-consistent calculation

     Convergence has been achieved 


     Representation #  44 mode #  44

     Self-consistent Calculation

      iter #   1 total cpu time :  9259.7 secs   av.it.:   4.7
      thresh= 1.000E-02 alpha_mix =  0.700 |ddv_scf|^2 =  9.913E-08

      iter #   2 total cpu time :  9324.5 secs   av.it.:  14.4
      thresh= 3.148E-05 alpha_mix =  0.700 |ddv_scf|^2 =  4.386E-07

      iter #   3 total cpu time :  9380.9 secs   av.it.:  12.5
      thresh= 6.622E-05 alpha_mix =  0.700 |ddv_scf|^2 =  1.988E-08

      iter #   4 total cpu time :  9438.1 secs   av.it.:  12.5
      thresh= 1.410E-05 alpha_mix =  0.700 |ddv_scf|^2 =  5.685E-10

     End of self-consistent calculation

     Convergence has been achieved 


     Representation #  45 mode #  45

     Self-consistent Calculation

      iter #   1 total cpu time :  9466.7 secs   av.it.:   4.4
      thresh= 1.000E-02 alpha_mix =  0.700 |ddv_scf|^2 =  4.099E-08

      iter #   2 total cpu time :  9534.6 secs   av.it.:  14.2
      thresh= 2.025E-05 alpha_mix =  0.700 |ddv_scf|^2 =  1.294E-07

      iter #   3 total cpu time :  9592.4 secs   av.it.:  12.6
      thresh= 3.597E-05 alpha_mix =  0.700 |ddv_scf|^2 =  1.162E-08

      iter #   4 total cpu time :  9647.6 secs   av.it.:  12.5
      thresh= 1.078E-05 alpha_mix =  0.700 |ddv_scf|^2 =  7.670E-10

     End of self-consistent calculation

     Convergence has been achieved 


     Representation #  46 mode #  46

     Self-consistent Calculation

      iter #   1 total cpu time :  9682.0 secs   av.it.:   6.1
      thresh= 1.000E-02 alpha_mix =  0.700 |ddv_scf|^2 =  1.233E-06

      iter #   2 total cpu time :  9744.7 secs   av.it.:  13.7
      thresh= 1.110E-04 alpha_mix =  0.700 |ddv_scf|^2 =  5.219E-06

      iter #   3 total cpu time :  9799.9 secs   av.it.:  12.1
      thresh= 2.285E-04 alpha_mix =  0.700 |ddv_scf|^2 =  1.831E-07

      iter #   4 total cpu time :  9856.5 secs   av.it.:  12.5
      thresh= 4.279E-05 alpha_mix =  0.700 |ddv_scf|^2 =  6.265E-10

     End of self-consistent calculation

     Convergence has been achieved 


     Representation #  47 mode #  47

     Self-consistent Calculation

      iter #   1 total cpu time :  9886.8 secs   av.it.:   5.0
      thresh= 1.000E-02 alpha_mix =  0.700 |ddv_scf|^2 =  3.920E-07

      iter #   2 total cpu time :  9953.6 secs   av.it.:  14.1
      thresh= 6.261E-05 alpha_mix =  0.700 |ddv_scf|^2 =  2.558E-06

      iter #   3 total cpu time : 10010.7 secs   av.it.:  12.2
      thresh= 1.599E-04 alpha_mix =  0.700 |ddv_scf|^2 =  1.340E-08

      iter #   4 total cpu time : 10071.5 secs   av.it.:  12.9
      thresh= 1.158E-05 alpha_mix =  0.700 |ddv_scf|^2 =  7.446E-10

     End of self-consistent calculation

     Convergence has been achieved 


     Representation #  48 mode #  48

     Self-consistent Calculation

      iter #   1 total cpu time : 10104.2 secs   av.it.:   4.9
      thresh= 1.000E-02 alpha_mix =  0.700 |ddv_scf|^2 =  2.770E-07

      iter #   2 total cpu time : 10190.3 secs   av.it.:  14.3
      thresh= 5.263E-05 alpha_mix =  0.700 |ddv_scf|^2 =  1.859E-06

      iter #   3 total cpu time : 10256.6 secs   av.it.:  12.2
      thresh= 1.364E-04 alpha_mix =  0.700 |ddv_scf|^2 =  7.666E-09

     End of self-consistent calculation

     Convergence has been achieved 


     Representation #  49 mode #  49

     Self-consistent Calculation

      iter #   1 total cpu time : 10295.2 secs   av.it.:   4.7
      thresh= 1.000E-02 alpha_mix =  0.700 |ddv_scf|^2 =  1.032E-07

      iter #   2 total cpu time : 10371.1 secs   av.it.:  14.4
      thresh= 3.212E-05 alpha_mix =  0.700 |ddv_scf|^2 =  5.658E-07

      iter #   3 total cpu time : 10434.0 secs   av.it.:  12.3
      thresh= 7.522E-05 alpha_mix =  0.700 |ddv_scf|^2 =  9.363E-09

     End of self-consistent calculation

     Convergence has been achieved 


     Representation #  50 mode #  50

     Self-consistent Calculation

      iter #   1 total cpu time : 10480.0 secs   av.it.:   4.9
      thresh= 1.000E-02 alpha_mix =  0.700 |ddv_scf|^2 =  3.571E-07

      iter #   2 total cpu time : 10540.7 secs   av.it.:  14.2
      thresh= 5.976E-05 alpha_mix =  0.700 |ddv_scf|^2 =  2.396E-06

      iter #   3 total cpu time : 10596.3 secs   av.it.:  12.2
      thresh= 1.548E-04 alpha_mix =  0.700 |ddv_scf|^2 =  1.285E-08

      iter #   4 total cpu time : 10656.5 secs   av.it.:  12.8
      thresh= 1.133E-05 alpha_mix =  0.700 |ddv_scf|^2 =  6.727E-10

     End of self-consistent calculation

     Convergence has been achieved 


     Representation #  51 mode #  51

     Self-consistent Calculation

      iter #   1 total cpu time : 10688.8 secs   av.it.:   4.5
      thresh= 1.000E-02 alpha_mix =  0.700 |ddv_scf|^2 =  7.012E-08

      iter #   2 total cpu time : 10760.8 secs   av.it.:  14.4
      thresh= 2.648E-05 alpha_mix =  0.700 |ddv_scf|^2 =  3.135E-07

      iter #   3 total cpu time : 10819.7 secs   av.it.:  12.4
      thresh= 5.599E-05 alpha_mix =  0.700 |ddv_scf|^2 =  1.294E-08

      iter #   4 total cpu time : 10883.5 secs   av.it.:  12.5
      thresh= 1.138E-05 alpha_mix =  0.700 |ddv_scf|^2 =  6.534E-10

     End of self-consistent calculation

     Convergence has been achieved 


     Representation #  52 mode #  52

     Self-consistent Calculation

      iter #   1 total cpu time : 10910.0 secs   av.it.:   4.3
      thresh= 1.000E-02 alpha_mix =  0.700 |ddv_scf|^2 =  3.093E-08

      iter #   2 total cpu time : 10977.9 secs   av.it.:  14.0
      thresh= 1.759E-05 alpha_mix =  0.700 |ddv_scf|^2 =  4.557E-08

      iter #   3 total cpu time : 11040.7 secs   av.it.:  12.8
      thresh= 2.135E-05 alpha_mix =  0.700 |ddv_scf|^2 =  1.235E-08

      iter #   4 total cpu time : 11105.7 secs   av.it.:  12.5
      thresh= 1.111E-05 alpha_mix =  0.700 |ddv_scf|^2 =  9.365E-10

     End of self-consistent calculation

     Convergence has been achieved 


     Representation #  53 mode #  53

     Self-consistent Calculation

      iter #   1 total cpu time : 11137.5 secs   av.it.:   4.8
      thresh= 1.000E-02 alpha_mix =  0.700 |ddv_scf|^2 =  2.408E-07

      iter #   2 total cpu time : 11204.9 secs   av.it.:  14.2
      thresh= 4.907E-05 alpha_mix =  0.700 |ddv_scf|^2 =  1.354E-06

      iter #   3 total cpu time : 11268.8 secs   av.it.:  12.3
      thresh= 1.164E-04 alpha_mix =  0.700 |ddv_scf|^2 =  2.117E-08

      iter #   4 total cpu time : 11328.5 secs   av.it.:  12.8
      thresh= 1.455E-05 alpha_mix =  0.700 |ddv_scf|^2 =  8.189E-10

     End of self-consistent calculation

     Convergence has been achieved 


     Representation #  54 mode #  54

     Self-consistent Calculation

      iter #   1 total cpu time : 11364.1 secs   av.it.:   5.8
      thresh= 1.000E-02 alpha_mix =  0.700 |ddv_scf|^2 =  2.054E-07

      iter #   2 total cpu time : 11430.6 secs   av.it.:  14.0
      thresh= 4.532E-05 alpha_mix =  0.700 |ddv_scf|^2 =  7.187E-07

      iter #   3 total cpu time : 11489.8 secs   av.it.:  12.3
      thresh= 8.478E-05 alpha_mix =  0.700 |ddv_scf|^2 =  4.007E-08

      iter #   4 total cpu time : 11551.4 secs   av.it.:  12.6
      thresh= 2.002E-05 alpha_mix =  0.700 |ddv_scf|^2 =  8.423E-10

     End of self-consistent calculation

     Convergence has been achieved 


     Representation #  55 mode #  55

     Self-consistent Calculation

      iter #   1 total cpu time : 11582.5 secs   av.it.:   4.8
      thresh= 1.000E-02 alpha_mix =  0.700 |ddv_scf|^2 =  3.182E-07

      iter #   2 total cpu time : 11663.5 secs   av.it.:  14.3
      thresh= 5.640E-05 alpha_mix =  0.700 |ddv_scf|^2 =  2.129E-06

      iter #   3 total cpu time : 11731.7 secs   av.it.:  12.2
      thresh= 1.459E-04 alpha_mix =  0.700 |ddv_scf|^2 =  1.155E-08

      iter #   4 total cpu time : 11792.0 secs   av.it.:  12.9
      thresh= 1.075E-05 alpha_mix =  0.700 |ddv_scf|^2 =  6.502E-10

     End of self-consistent calculation

     Convergence has been achieved 


     Representation #  56 mode #  56

     Self-consistent Calculation

      iter #   1 total cpu time : 11827.9 secs   av.it.:   4.5
      thresh= 1.000E-02 alpha_mix =  0.700 |ddv_scf|^2 =  1.894E-07

      iter #   2 total cpu time : 11919.7 secs   av.it.:  14.1
      thresh= 4.352E-05 alpha_mix =  0.700 |ddv_scf|^2 =  1.172E-06

      iter #   3 total cpu time : 11975.0 secs   av.it.:  12.1
      thresh= 1.083E-04 alpha_mix =  0.700 |ddv_scf|^2 =  7.671E-09

     End of self-consistent calculation

     Convergence has been achieved 


     Representation #  57 mode #  57

     Self-consistent Calculation

      iter #   1 total cpu time : 12005.1 secs   av.it.:   4.5
      thresh= 1.000E-02 alpha_mix =  0.700 |ddv_scf|^2 =  7.420E-08

      iter #   2 total cpu time : 12067.0 secs   av.it.:  13.9
      thresh= 2.724E-05 alpha_mix =  0.700 |ddv_scf|^2 =  2.573E-07

      iter #   3 total cpu time : 12122.2 secs   av.it.:  12.3
      thresh= 5.072E-05 alpha_mix =  0.700 |ddv_scf|^2 =  1.419E-08

      iter #   4 total cpu time : 12181.7 secs   av.it.:  12.9
      thresh= 1.191E-05 alpha_mix =  0.700 |ddv_scf|^2 =  1.081E-09

     End of self-consistent calculation

     Convergence has been achieved 


     Representation #  58 mode #  58

     Self-consistent Calculation

      iter #   1 total cpu time : 12209.7 secs   av.it.:   4.5
      thresh= 1.000E-02 alpha_mix =  0.700 |ddv_scf|^2 =  7.927E-08

      iter #   2 total cpu time : 12285.3 secs   av.it.:  14.1
      thresh= 2.815E-05 alpha_mix =  0.700 |ddv_scf|^2 =  2.838E-07

      iter #   3 total cpu time : 12344.5 secs   av.it.:  12.4
      thresh= 5.327E-05 alpha_mix =  0.700 |ddv_scf|^2 =  1.682E-08

      iter #   4 total cpu time : 12410.2 secs   av.it.:  12.7
      thresh= 1.297E-05 alpha_mix =  0.700 |ddv_scf|^2 =  8.738E-10

     End of self-consistent calculation

     Convergence has been achieved 


     Representation #  59 mode #  59

     Self-consistent Calculation

      iter #   1 total cpu time : 12439.1 secs   av.it.:   4.6
      thresh= 1.000E-02 alpha_mix =  0.700 |ddv_scf|^2 =  6.991E-08

      iter #   2 total cpu time : 12512.5 secs   av.it.:  14.0
      thresh= 2.644E-05 alpha_mix =  0.700 |ddv_scf|^2 =  1.292E-07

      iter #   3 total cpu time : 12572.1 secs   av.it.:  12.7
      thresh= 3.594E-05 alpha_mix =  0.700 |ddv_scf|^2 =  1.301E-08

      iter #   4 total cpu time : 12640.2 secs   av.it.:  12.7
      thresh= 1.140E-05 alpha_mix =  0.700 |ddv_scf|^2 =  1.625E-09

     End of self-consistent calculation

     Convergence has been achieved 


     Representation #  60 mode #  60

     Self-consistent Calculation

      iter #   1 total cpu time : 12671.0 secs   av.it.:   4.6
      thresh= 1.000E-02 alpha_mix =  0.700 |ddv_scf|^2 =  1.080E-07

      iter #   2 total cpu time : 12749.2 secs   av.it.:  14.2
      thresh= 3.287E-05 alpha_mix =  0.700 |ddv_scf|^2 =  4.700E-07

      iter #   3 total cpu time : 12822.0 secs   av.it.:  12.4
      thresh= 6.856E-05 alpha_mix =  0.700 |ddv_scf|^2 =  1.945E-08

      iter #   4 total cpu time : 12885.4 secs   av.it.:  12.6
      thresh= 1.395E-05 alpha_mix =  0.700 |ddv_scf|^2 =  6.487E-10

     End of self-consistent calculation

     Convergence has been achieved 
 
     Number of q in the star =   12
     List of q in the star:
          1   0.125000000   0.216506351   0.083812113
          2  -0.125000000   0.216506351  -0.083812113
          3   0.125000000  -0.216506351  -0.083812113
          4  -0.125000000   0.216506351   0.083812113
          5   0.250000000  -0.000000000   0.083812113
          6  -0.250000000   0.000000000   0.083812113
          7   0.125000000  -0.216506351   0.083812113
          8  -0.125000000  -0.216506351  -0.083812113
          9   0.250000000  -0.000000000  -0.083812113
         10  -0.250000000   0.000000000  -0.083812113
         11   0.125000000   0.216506351  -0.083812113
         12  -0.125000000  -0.216506351   0.083812113

     Diagonalizing the dynamical matrix

     q = (    0.125000000   0.216506351   0.083812113 ) 

 **************************************************************************
     freq (    1) =     -18.593889 [THz] =    -620.225385 [cm-1]
     freq (    2) =     -15.346783 [THz] =    -511.913595 [cm-1]
     freq (    3) =     -13.681661 [THz] =    -456.371081 [cm-1]
     freq (    4) =       3.701232 [THz] =     123.459826 [cm-1]
     freq (    5) =       3.958640 [THz] =     132.046010 [cm-1]
     freq (    6) =       4.969901 [THz] =     165.778063 [cm-1]
     freq (    7) =       5.059466 [THz] =     168.765609 [cm-1]
     freq (    8) =       5.809030 [THz] =     193.768372 [cm-1]
     freq (    9) =       6.251519 [THz] =     208.528237 [cm-1]
     freq (   10) =      21.197706 [THz] =     707.079372 [cm-1]
     freq (   11) =      24.267891 [THz] =     809.489716 [cm-1]
     freq (   12) =      25.099361 [THz] =     837.224548 [cm-1]
     freq (   13) =      25.705061 [THz] =     857.428528 [cm-1]
     freq (   14) =      26.089362 [THz] =     870.247443 [cm-1]
     freq (   15) =      27.181596 [THz] =     906.680451 [cm-1]
     freq (   16) =      27.648926 [THz] =     922.268907 [cm-1]
     freq (   17) =      28.778748 [THz] =     959.955711 [cm-1]
     freq (   18) =      30.054777 [THz] =    1002.519454 [cm-1]
     freq (   19) =      30.980914 [THz] =    1033.412070 [cm-1]
     freq (   20) =      32.238324 [THz] =    1075.354742 [cm-1]
     freq (   21) =      33.009420 [THz] =    1101.075734 [cm-1]
     freq (   22) =      33.272887 [THz] =    1109.864029 [cm-1]
     freq (   23) =      33.352541 [THz] =    1112.521004 [cm-1]
     freq (   24) =      34.150451 [THz] =    1139.136438 [cm-1]
     freq (   25) =      34.567802 [THz] =    1153.057750 [cm-1]
     freq (   26) =      35.651658 [THz] =    1189.211291 [cm-1]
     freq (   27) =      35.866766 [THz] =    1196.386546 [cm-1]
     freq (   28) =      37.606422 [THz] =    1254.415207 [cm-1]
     freq (   29) =      38.683956 [THz] =    1290.357876 [cm-1]
     freq (   30) =      38.854672 [THz] =    1296.052357 [cm-1]
     freq (   31) =      39.927218 [THz] =    1331.828618 [cm-1]
     freq (   32) =      40.347121 [THz] =    1345.835086 [cm-1]
     freq (   33) =      40.509871 [THz] =    1351.263845 [cm-1]
     freq (   34) =      40.848888 [THz] =    1362.572246 [cm-1]
     freq (   35) =      41.501075 [THz] =    1384.326850 [cm-1]
     freq (   36) =      41.699084 [THz] =    1390.931725 [cm-1]
     freq (   37) =      41.860170 [THz] =    1396.304989 [cm-1]
     freq (   38) =      43.013007 [THz] =    1434.759481 [cm-1]
     freq (   39) =      44.185207 [THz] =    1473.859876 [cm-1]
     freq (   40) =      44.306640 [THz] =    1477.910420 [cm-1]
     freq (   41) =      44.773608 [THz] =    1493.486804 [cm-1]
     freq (   42) =      45.907602 [THz] =    1531.312756 [cm-1]
     freq (   43) =      46.439579 [THz] =    1549.057628 [cm-1]
     freq (   44) =      46.587061 [THz] =    1553.977071 [cm-1]
     freq (   45) =      46.799543 [THz] =    1561.064733 [cm-1]
     freq (   46) =      46.824170 [THz] =    1561.886179 [cm-1]
     freq (   47) =      47.548694 [THz] =    1586.053711 [cm-1]
     freq (   48) =      48.283111 [THz] =    1610.551221 [cm-1]
     freq (   49) =      49.126428 [THz] =    1638.681241 [cm-1]
     freq (   50) =      49.138528 [THz] =    1639.084874 [cm-1]
     freq (   51) =      51.460456 [THz] =    1716.536059 [cm-1]
     freq (   52) =      51.948706 [THz] =    1732.822305 [cm-1]
     freq (   53) =      54.485952 [THz] =    1817.455717 [cm-1]
     freq (   54) =      54.841132 [THz] =    1829.303273 [cm-1]
     freq (   55) =      55.837040 [THz] =    1862.523187 [cm-1]
     freq (   56) =      56.031784 [THz] =    1869.019129 [cm-1]
     freq (   57) =      58.414648 [THz] =    1948.502930 [cm-1]
     freq (   58) =      59.315368 [THz] =    1978.547705 [cm-1]
     freq (   59) =      66.300369 [THz] =    2211.542274 [cm-1]
     freq (   60) =      67.063868 [THz] =    2237.009839 [cm-1]
 **************************************************************************

     Mode symmetry, C_s (m)     point group:

     freq (   1-   1) =       -620.2  [cm-1]   --> A''                
     freq (   2-   2) =       -511.9  [cm-1]   --> A'                 
     freq (   3-   3) =       -456.4  [cm-1]   --> A''                
     freq (   4-   4) =        123.5  [cm-1]   --> A''                
     freq (   5-   5) =        132.0  [cm-1]   --> A'                 
     freq (   6-   6) =        165.8  [cm-1]   --> A''                
     freq (   7-   7) =        168.8  [cm-1]   --> A'                 
     freq (   8-   8) =        193.8  [cm-1]   --> A'                 
     freq (   9-   9) =        208.5  [cm-1]   --> A''                
     freq (  10-  10) =        707.1  [cm-1]   --> A'                 
     freq (  11-  11) =        809.5  [cm-1]   --> A''                
     freq (  12-  12) =        837.2  [cm-1]   --> A'                 
     freq (  13-  13) =        857.4  [cm-1]   --> A''                
     freq (  14-  14) =        870.2  [cm-1]   --> A'                 
     freq (  15-  15) =        906.7  [cm-1]   --> A''                
     freq (  16-  16) =        922.3  [cm-1]   --> A''                
     freq (  17-  17) =        960.0  [cm-1]   --> A'                 
     freq (  18-  18) =       1002.5  [cm-1]   --> A''                
     freq (  19-  19) =       1033.4  [cm-1]   --> A'                 
     freq (  20-  20) =       1075.4  [cm-1]   --> A'                 
     freq (  21-  21) =       1101.1  [cm-1]   --> A''                
     freq (  22-  22) =       1109.9  [cm-1]   --> A''                
     freq (  23-  23) =       1112.5  [cm-1]   --> A'                 
     freq (  24-  24) =       1139.1  [cm-1]   --> A'                 
     freq (  25-  25) =       1153.1  [cm-1]   --> A''                
     freq (  26-  26) =       1189.2  [cm-1]   --> A''                
     freq (  27-  27) =       1196.4  [cm-1]   --> A'                 
     freq (  28-  28) =       1254.4  [cm-1]   --> A''                
     freq (  29-  29) =       1290.4  [cm-1]   --> A''                
     freq (  30-  30) =       1296.1  [cm-1]   --> A'                 
     freq (  31-  31) =       1331.8  [cm-1]   --> A'                 
     freq (  32-  32) =       1345.8  [cm-1]   --> A'                 
     freq (  33-  33) =       1351.3  [cm-1]   --> A''                
     freq (  34-  34) =       1362.6  [cm-1]   --> A''                
     freq (  35-  35) =       1384.3  [cm-1]   --> A'                 
     freq (  36-  36) =       1390.9  [cm-1]   --> A'                 
     freq (  37-  37) =       1396.3  [cm-1]   --> A''                
     freq (  38-  38) =       1434.8  [cm-1]   --> A'                 
     freq (  39-  39) =       1473.9  [cm-1]   --> A''                
     freq (  40-  40) =       1477.9  [cm-1]   --> A'                 
     freq (  41-  41) =       1493.5  [cm-1]   --> A''                
     freq (  42-  42) =       1531.3  [cm-1]   --> A'                 
     freq (  43-  43) =       1549.1  [cm-1]   --> A''                
     freq (  44-  44) =       1554.0  [cm-1]   --> A'                 
     freq (  45-  45) =       1561.1  [cm-1]   --> A'                 
     freq (  46-  46) =       1561.9  [cm-1]   --> A''                
     freq (  47-  47) =       1586.1  [cm-1]   --> A''                
     freq (  48-  48) =       1610.6  [cm-1]   --> A'                 
     freq (  49-  49) =       1638.7  [cm-1]   --> A''                
     freq (  50-  50) =       1639.1  [cm-1]   --> A'                 
     freq (  51-  51) =       1716.5  [cm-1]   --> A'                 
     freq (  52-  52) =       1732.8  [cm-1]   --> A''                
     freq (  53-  53) =       1817.5  [cm-1]   --> A''                
     freq (  54-  54) =       1829.3  [cm-1]   --> A'                 
     freq (  55-  55) =       1862.5  [cm-1]   --> A'                 
     freq (  56-  56) =       1869.0  [cm-1]   --> A''                
     freq (  57-  57) =       1948.5  [cm-1]   --> A''                
     freq (  58-  58) =       1978.5  [cm-1]   --> A'                 
     freq (  59-  59) =       2211.5  [cm-1]   --> A'                 
     freq (  60-  60) =       2237.0  [cm-1]   --> A''                

     Calculation of q =    0.1250000   0.2165064   0.2514363
     [opt_tetra]  Optimized tetrahedron method is used.
 
     Parallelization info
     --------------------
     sticks:   dense  smooth     PW     G-vecs:    dense   smooth      PW
     Min          54      54     16                 2194     2194     368
     Max          56      56     18                 2199     2199     373
     Sum        1099    1099    337                43927    43927    7413
 
     Using Slab Decomposition
 

     Title: 
     Electron-phonon coefficients for Th2H18                                    


     bravais-lattice index     =            4
     lattice parameter (alat)  =       7.0655  a.u.
     unit-cell volume          =     455.5684 (a.u.)^3
     number of atoms/cell      =           20
     number of atomic types    =            2
     number of electrons       =        26.00
     number of Kohn-Sham states=           17
     kinetic-energy cutoff     =      80.0000  Ry
     charge density cutoff     =     320.0000  Ry
     Exchange-correlation= PZ
                           (   1   1   0   0   0   0   0)

     celldm(1)=   7.065451  celldm(2)=   0.000000  celldm(3)=   1.491431
     celldm(4)=   0.000000  celldm(5)=   0.000000  celldm(6)=   0.000000

     crystal axes: (cart. coord. in units of alat)
               a(1) = (   1.000000   0.000000   0.000000 )  
               a(2) = (  -0.500000   0.866025   0.000000 )  
               a(3) = (   0.000000   0.000000   1.491431 )  

     reciprocal axes: (cart. coord. in units 2 pi/alat)
               b(1) = (  1.000000  0.577350  0.000000 )  
               b(2) = (  0.000000  1.154701  0.000000 )  
               b(3) = (  0.000000  0.000000  0.670497 )  


     PseudoPot. # 1 for H  read from file:
     ./H.UPF
     MD5 check sum: df8e43189db5a2d7f03d0dd74d71ce72
     Pseudo is Norm-conserving, Zval =  1.0
     Generated in analytical, separable form
     Using radial grid of  929 points,  0 beta functions with: 

     PseudoPot. # 2 for Th read from file:
     ./Th.UPF
     MD5 check sum: a439cebac19eeec3fe133fa10c950477
     Pseudo is Norm-conserving + core correction, Zval =  4.0
     Generated using "atomic" code by A. Dal Corso  v.5.0.99 svn rev. 10869
     Using radial grid of 1289 points,  3 beta functions with: 
                l(1) =   1
                l(2) =   2
                l(3) =   3

     atomic species   valence    mass     pseudopotential
        H              1.00     1.00794     H ( 1.00)
        Th             4.00   232.03806     Th( 1.00)

     24 Sym. Ops., with inversion, found



   Cartesian axes

     site n.     atom                  positions (alat units)
         1           Th  tau(   1) = (   0.5000000   0.2886751   1.1185734  )
         2           Th  tau(   2) = (   0.0000000   0.5773503   0.3728578  )
         3           H   tau(   3) = (   0.0000000   0.0000000   0.3728578  )
         4           H   tau(   4) = (   0.0000000   0.0000000   1.1185734  )
         5           H   tau(   5) = (   0.5000000   0.2886751   0.2322958  )
         6           H   tau(   6) = (   0.0000000   0.5773503   0.9780114  )
         7           H   tau(   7) = (  -0.0000000   0.5773503   1.2591354  )
         8           H   tau(   8) = (   0.5000000   0.2886751   0.5134198  )
         9           H   tau(   9) = (   0.5000000   0.6068623   0.0916360  )
        10           H   tau(  10) = (   0.2244418   0.1295815   0.0916360  )
        11           H   tau(  11) = (   0.7755582   0.1295815   0.0916360  )
        12           H   tau(  12) = (   0.0000000   0.2591631   0.8373516  )
        13           H   tau(  13) = (   0.2755582   0.7364439   0.8373516  )
        14           H   tau(  14) = (  -0.2755582   0.7364439   0.8373516  )
        15           H   tau(  15) = (   0.2755582   0.7364439   1.3997952  )
        16           H   tau(  16) = (  -0.0000000   0.2591631   1.3997952  )
        17           H   tau(  17) = (  -0.2755582   0.7364439   1.3997952  )
        18           H   tau(  18) = (   0.2244418   0.1295815   0.6540796  )
        19           H   tau(  19) = (   0.5000000   0.6068623   0.6540796  )
        20           H   tau(  20) = (   0.7755582   0.1295815   0.6540796  )

     number of k points=  1872 (tetrahedron method)

     Number of k-points >= 100: set verbosity='high' to print them.

     Dense  grid:    43927 G-vectors     FFT dimensions: (  45,  45,  64)

     Estimated max dynamical RAM per process >       3.08 MB

     Estimated total dynamical RAM >      61.51 MB

     The potential is recalculated from file :
     ./_ph0/Th2H18.q_2/Th2H18.save/charge-density

     Starting wfcs are   50 atomic wfcs

     Band Structure Calculation
     Davidson diagonalization with overlap
     c_bands:  1 eigenvalues not converged
     c_bands:  1 eigenvalues not converged
     c_bands:  1 eigenvalues not converged
     c_bands:  1 eigenvalues not converged
     c_bands:  1 eigenvalues not converged
     c_bands:  1 eigenvalues not converged
     c_bands:  1 eigenvalues not converged
     c_bands:  1 eigenvalues not converged
     c_bands:  1 eigenvalues not converged
     c_bands:  1 eigenvalues not converged
     c_bands:  1 eigenvalues not converged
     c_bands:  1 eigenvalues not converged
     c_bands:  1 eigenvalues not converged
     c_bands:  1 eigenvalues not converged
     c_bands:  1 eigenvalues not converged
     c_bands:  1 eigenvalues not converged
     c_bands:  1 eigenvalues not converged
     c_bands:  1 eigenvalues not converged
     c_bands:  1 eigenvalues not converged
     c_bands:  1 eigenvalues not converged
     c_bands:  1 eigenvalues not converged
     c_bands:  1 eigenvalues not converged
     c_bands:  1 eigenvalues not converged
     c_bands:  1 eigenvalues not converged
     c_bands:  1 eigenvalues not converged
     c_bands:  1 eigenvalues not converged
     c_bands:  1 eigenvalues not converged
[...]

      iter #   1 total cpu time :223867.8 secs   av.it.:   4.1
      thresh= 1.000E-02 alpha_mix =  0.700 |ddv_scf|^2 =  6.743E-09

     End of self-consistent calculation

     Convergence has been achieved 


     Representation #  47 mode #  47

     Self-consistent Calculation

      iter #   1 total cpu time :223895.2 secs   av.it.:   4.3
      thresh= 1.000E-02 alpha_mix =  0.700 |ddv_scf|^2 =  1.129E-08

      iter #   2 total cpu time :223961.4 secs   av.it.:  13.9
      thresh= 1.063E-05 alpha_mix =  0.700 |ddv_scf|^2 =  1.379E-09

     End of self-consistent calculation

     Convergence has been achieved 


     Representation #  48 mode #  48

     Self-consistent Calculation

      iter #   1 total cpu time :223988.7 secs   av.it.:   4.6
      thresh= 1.000E-02 alpha_mix =  0.700 |ddv_scf|^2 =  3.353E-08

      iter #   2 total cpu time :224052.9 secs   av.it.:  13.8
      thresh= 1.831E-05 alpha_mix =  0.700 |ddv_scf|^2 =  7.771E-09

     End of self-consistent calculation

     Convergence has been achieved 


     Representation #  49 mode #  49

     Self-consistent Calculation

      iter #   1 total cpu time :224080.8 secs   av.it.:   4.2
      thresh= 1.000E-02 alpha_mix =  0.700 |ddv_scf|^2 =  6.624E-09

     End of self-consistent calculation

     Convergence has been achieved 


     Representation #  50 mode #  50

     Self-consistent Calculation

      iter #   1 total cpu time :224111.7 secs   av.it.:   4.4
      thresh= 1.000E-02 alpha_mix =  0.700 |ddv_scf|^2 =  2.817E-08

      iter #   2 total cpu time :224176.1 secs   av.it.:  13.8
      thresh= 1.678E-05 alpha_mix =  0.700 |ddv_scf|^2 =  6.056E-09

     End of self-consistent calculation

     Convergence has been achieved 


     Representation #  51 mode #  51

     Self-consistent Calculation

      iter #   1 total cpu time :224203.4 secs   av.it.:   4.3
      thresh= 1.000E-02 alpha_mix =  0.700 |ddv_scf|^2 =  1.079E-08

      iter #   2 total cpu time :224291.3 secs   av.it.:  13.9
      thresh= 1.039E-05 alpha_mix =  0.700 |ddv_scf|^2 =  1.160E-09

     End of self-consistent calculation

     Convergence has been achieved 


     Representation #  52 mode #  52

     Self-consistent Calculation

      iter #   1 total cpu time :224319.7 secs   av.it.:   4.3
      thresh= 1.000E-02 alpha_mix =  0.700 |ddv_scf|^2 =  2.817E-08

      iter #   2 total cpu time :224383.8 secs   av.it.:  13.8
      thresh= 1.678E-05 alpha_mix =  0.700 |ddv_scf|^2 =  6.056E-09

     End of self-consistent calculation

     Convergence has been achieved 


     Representation #  53 mode #  53

     Self-consistent Calculation

      iter #   1 total cpu time :224412.2 secs   av.it.:   4.6
      thresh= 1.000E-02 alpha_mix =  0.700 |ddv_scf|^2 =  3.340E-08

      iter #   2 total cpu time :224480.0 secs   av.it.:  13.8
      thresh= 1.827E-05 alpha_mix =  0.700 |ddv_scf|^2 =  7.664E-09

     End of self-consistent calculation

     Convergence has been achieved 


     Representation #  54 mode #  54

     Self-consistent Calculation

      iter #   1 total cpu time :224526.3 secs   av.it.:   5.7
      thresh= 1.000E-02 alpha_mix =  0.700 |ddv_scf|^2 =  3.688E-08

      iter #   2 total cpu time :224611.1 secs   av.it.:  14.2
      thresh= 1.920E-05 alpha_mix =  0.700 |ddv_scf|^2 =  1.086E-08

      iter #   3 total cpu time :224680.3 secs   av.it.:  13.3
      thresh= 1.042E-05 alpha_mix =  0.700 |ddv_scf|^2 =  1.874E-11

     End of self-consistent calculation

     Convergence has been achieved 


     Representation #  55 mode #  55

     Self-consistent Calculation

      iter #   1 total cpu time :224716.9 secs   av.it.:   3.8
      thresh= 1.000E-02 alpha_mix =  0.700 |ddv_scf|^2 =  4.849E-09

     End of self-consistent calculation

     Convergence has been achieved 


     Representation #  56 mode #  56

     Self-consistent Calculation

      iter #   1 total cpu time :224747.9 secs   av.it.:   4.3
      thresh= 1.000E-02 alpha_mix =  0.700 |ddv_scf|^2 =  9.433E-09

     End of self-consistent calculation

     Convergence has been achieved 


     Representation #  57 mode #  57

     Self-consistent Calculation

      iter #   1 total cpu time :224774.4 secs   av.it.:   3.6
      thresh= 1.000E-02 alpha_mix =  0.700 |ddv_scf|^2 =  3.845E-09

     End of self-consistent calculation

     Convergence has been achieved 


     Representation #  58 mode #  58

     Self-consistent Calculation

      iter #   1 total cpu time :224804.6 secs   av.it.:   4.6
      thresh= 1.000E-02 alpha_mix =  0.700 |ddv_scf|^2 =  3.353E-08

      iter #   2 total cpu time :224866.0 secs   av.it.:  13.8
      thresh= 1.831E-05 alpha_mix =  0.700 |ddv_scf|^2 =  7.772E-09

     End of self-consistent calculation

     Convergence has been achieved 


     Representation #  59 mode #  59

     Self-consistent Calculation

      iter #   1 total cpu time :224918.5 secs   av.it.:   4.1
      thresh= 1.000E-02 alpha_mix =  0.700 |ddv_scf|^2 =  7.483E-09

     End of self-consistent calculation

     Convergence has been achieved 


     Representation #  60 mode #  60

     Self-consistent Calculation

      iter #   1 total cpu time :224952.3 secs   av.it.:   5.7
      thresh= 1.000E-02 alpha_mix =  0.700 |ddv_scf|^2 =  3.688E-08

      iter #   2 total cpu time :225017.6 secs   av.it.:  14.2
      thresh= 1.920E-05 alpha_mix =  0.700 |ddv_scf|^2 =  1.086E-08

      iter #   3 total cpu time :225076.4 secs   av.it.:  13.3
      thresh= 1.042E-05 alpha_mix =  0.700 |ddv_scf|^2 =  1.873E-11

     End of self-consistent calculation

     Convergence has been achieved 
 
     Number of q in the star =   12
     List of q in the star:
          1   0.375000000  -0.216506351   0.251436340
          2  -0.375000000  -0.216506351  -0.251436340
          3   0.375000000   0.216506351  -0.251436340
          4   0.375000000   0.216506351   0.251436340
          5   0.000000000  -0.433012702   0.251436340
          6   0.000000000   0.433012702   0.251436340
          7  -0.375000000  -0.216506351   0.251436340
          8   0.375000000  -0.216506351  -0.251436340
          9   0.000000000   0.433012702  -0.251436340
         10   0.000000000  -0.433012702  -0.251436340
         11  -0.375000000   0.216506351  -0.251436340
         12  -0.375000000   0.216506351   0.251436340

     Diagonalizing the dynamical matrix

     q = (    0.375000000  -0.216506351   0.251436340 ) 

 **************************************************************************
     freq (    1) =     -51.685776 [THz] =   -1724.051896 [cm-1]
     freq (    2) =     -41.233657 [THz] =   -1375.406762 [cm-1]
     freq (    3) =     -34.668843 [THz] =   -1156.428138 [cm-1]
     freq (    4) =     -25.885557 [THz] =    -863.449245 [cm-1]
     freq (    5) =     -25.089005 [THz] =    -836.879114 [cm-1]
     freq (    6) =     -22.322193 [THz] =    -744.588197 [cm-1]
     freq (    7) =     -21.819797 [THz] =    -727.830072 [cm-1]
     freq (    8) =     -10.213752 [THz] =    -340.694097 [cm-1]
     freq (    9) =      -9.276456 [THz] =    -309.429254 [cm-1]
     freq (   10) =       4.167265 [THz] =     139.004999 [cm-1]
     freq (   11) =       4.637443 [THz] =     154.688445 [cm-1]
     freq (   12) =       4.897153 [THz] =     163.351444 [cm-1]
     freq (   13) =       5.071256 [THz] =     169.158897 [cm-1]
     freq (   14) =       6.057442 [THz] =     202.054510 [cm-1]
     freq (   15) =       6.365229 [THz] =     212.321177 [cm-1]
     freq (   16) =      10.367117 [THz] =     345.809794 [cm-1]
     freq (   17) =      19.406151 [THz] =     647.319534 [cm-1]
     freq (   18) =      21.827985 [THz] =     728.103201 [cm-1]
     freq (   19) =      22.092079 [THz] =     736.912424 [cm-1]
     freq (   20) =      25.024166 [THz] =     834.716343 [cm-1]
     freq (   21) =      27.413855 [THz] =     914.427768 [cm-1]
     freq (   22) =      29.203998 [THz] =     974.140524 [cm-1]
     freq (   23) =      29.810669 [THz] =     994.376899 [cm-1]
     freq (   24) =      31.550959 [THz] =    1052.426713 [cm-1]
     freq (   25) =      33.068137 [THz] =    1103.034319 [cm-1]
     freq (   26) =      34.215517 [THz] =    1141.306797 [cm-1]
     freq (   27) =      34.418844 [THz] =    1148.089068 [cm-1]
     freq (   28) =      34.471991 [THz] =    1149.861841 [cm-1]
     freq (   29) =      35.377707 [THz] =    1180.073283 [cm-1]
     freq (   30) =      35.458464 [THz] =    1182.767047 [cm-1]
     freq (   31) =      36.005651 [THz] =    1201.019252 [cm-1]
     freq (   32) =      36.825287 [THz] =    1228.359362 [cm-1]
     freq (   33) =      37.511739 [THz] =    1251.256921 [cm-1]
     freq (   34) =      39.762824 [THz] =    1326.345026 [cm-1]
     freq (   35) =      40.316032 [THz] =    1344.798066 [cm-1]
     freq (   36) =      40.614309 [THz] =    1354.747525 [cm-1]
     freq (   37) =      41.371612 [THz] =    1380.008445 [cm-1]
     freq (   38) =      41.706849 [THz] =    1391.190732 [cm-1]
     freq (   39) =      41.830629 [THz] =    1395.319580 [cm-1]
     freq (   40) =      42.051429 [THz] =    1402.684703 [cm-1]
     freq (   41) =      42.894411 [THz] =    1430.803531 [cm-1]
     freq (   42) =      43.571864 [THz] =    1453.400948 [cm-1]
     freq (   43) =      44.893759 [THz] =    1497.494620 [cm-1]
     freq (   44) =      45.511200 [THz] =    1518.090232 [cm-1]
     freq (   45) =      45.828655 [THz] =    1528.679371 [cm-1]
     freq (   46) =      47.078089 [THz] =    1570.356010 [cm-1]
     freq (   47) =      47.395317 [THz] =    1580.937593 [cm-1]
     freq (   48) =      47.496637 [THz] =    1584.317282 [cm-1]
     freq (   49) =      47.530739 [THz] =    1585.454793 [cm-1]
     freq (   50) =      48.173583 [THz] =    1606.897761 [cm-1]
     freq (   51) =      48.348787 [THz] =    1612.741941 [cm-1]
     freq (   52) =      49.055157 [THz] =    1636.303921 [cm-1]
     freq (   53) =      49.864490 [THz] =    1663.300361 [cm-1]
     freq (   54) =      50.811562 [THz] =    1694.891262 [cm-1]
     freq (   55) =      51.073406 [THz] =    1703.625447 [cm-1]
     freq (   56) =      53.094534 [THz] =    1771.043008 [cm-1]
     freq (   57) =      53.808272 [THz] =    1794.850766 [cm-1]
     freq (   58) =      62.254059 [THz] =    2076.571883 [cm-1]
     freq (   59) =      80.347103 [THz] =    2680.090856 [cm-1]
     freq (   60) =      92.564229 [THz] =    3087.610314 [cm-1]
 **************************************************************************

     Mode symmetry, C_s (m)     point group:

     freq (   1-   1) =      -1724.1  [cm-1]   --> A''                
     freq (   2-   2) =      -1375.4  [cm-1]   --> A''                
     freq (   3-   3) =      -1156.4  [cm-1]   --> A''                
     freq (   4-   4) =       -863.4  [cm-1]   --> A'                 
     freq (   5-   5) =       -836.9  [cm-1]   --> A''                
     freq (   6-   6) =       -744.6  [cm-1]   --> A''                
     freq (   7-   7) =       -727.8  [cm-1]   --> A''                
     freq (   8-   8) =       -340.7  [cm-1]   --> A''                
     freq (   9-   9) =       -309.4  [cm-1]   --> A'                 
     freq (  10-  10) =        139.0  [cm-1]   --> A'                 
     freq (  11-  11) =        154.7  [cm-1]   --> A'                 
     freq (  12-  12) =        163.4  [cm-1]   --> A''                
     freq (  13-  13) =        169.2  [cm-1]   --> A''                
     freq (  14-  14) =        202.1  [cm-1]   --> A'                 
     freq (  15-  15) =        212.3  [cm-1]   --> A'                 
     freq (  16-  16) =        345.8  [cm-1]   --> A''                
     freq (  17-  17) =        647.3  [cm-1]   --> A'                 
     freq (  18-  18) =        728.1  [cm-1]   --> A''                
     freq (  19-  19) =        736.9  [cm-1]   --> A'                 
     freq (  20-  20) =        834.7  [cm-1]   --> A'                 
     freq (  21-  21) =        914.4  [cm-1]   --> A'                 
     freq (  22-  22) =        974.1  [cm-1]   --> A'                 
     freq (  23-  23) =        994.4  [cm-1]   --> A'                 
     freq (  24-  24) =       1052.4  [cm-1]   --> A'                 
     freq (  25-  25) =       1103.0  [cm-1]   --> A'                 
     freq (  26-  26) =       1141.3  [cm-1]   --> A''                
     freq (  27-  27) =       1148.1  [cm-1]   --> A'                 
     freq (  28-  28) =       1149.9  [cm-1]   --> A''                
     freq (  29-  29) =       1180.1  [cm-1]   --> A'                 
     freq (  30-  30) =       1182.8  [cm-1]   --> A''                
     freq (  31-  31) =       1201.0  [cm-1]   --> A'                 
     freq (  32-  32) =       1228.4  [cm-1]   --> A''                
     freq (  33-  33) =       1251.3  [cm-1]   --> A''                
     freq (  34-  34) =       1326.3  [cm-1]   --> A'                 
     freq (  35-  35) =       1344.8  [cm-1]   --> A''                
     freq (  36-  36) =       1354.7  [cm-1]   --> A'                 
     freq (  37-  37) =       1380.0  [cm-1]   --> A''                
     freq (  38-  38) =       1391.2  [cm-1]   --> A'                 
     freq (  39-  39) =       1395.3  [cm-1]   --> A'                 
     freq (  40-  40) =       1402.7  [cm-1]   --> A'                 
     freq (  41-  41) =       1430.8  [cm-1]   --> A'                 
     freq (  42-  42) =       1453.4  [cm-1]   --> A'                 
     freq (  43-  43) =       1497.5  [cm-1]   --> A'                 
     freq (  44-  44) =       1518.1  [cm-1]   --> A'                 
     freq (  45-  45) =       1528.7  [cm-1]   --> A'                 
     freq (  46-  46) =       1570.4  [cm-1]   --> A'                 
     freq (  47-  47) =       1580.9  [cm-1]   --> A''                
     freq (  48-  48) =       1584.3  [cm-1]   --> A''                
     freq (  49-  49) =       1585.5  [cm-1]   --> A'                 
     freq (  50-  50) =       1606.9  [cm-1]   --> A'                 
     freq (  51-  51) =       1612.7  [cm-1]   --> A''                
     freq (  52-  52) =       1636.3  [cm-1]   --> A'                 
     freq (  53-  53) =       1663.3  [cm-1]   --> A'                 
     freq (  54-  54) =       1694.9  [cm-1]   --> A''                
     freq (  55-  55) =       1703.6  [cm-1]   --> A'                 
     freq (  56-  56) =       1771.0  [cm-1]   --> A'                 
     freq (  57-  57) =       1794.9  [cm-1]   --> A'                 
     freq (  58-  58) =       2076.6  [cm-1]   --> A'                 
     freq (  59-  59) =       2680.1  [cm-1]   --> A''                
     freq (  60-  60) =       3087.6  [cm-1]   --> A''                
 
     init_run     :      1.18s CPU      1.43s WALL (      12 calls)
     electrons    :   6316.77s CPU   6544.97s WALL (      12 calls)

     Called by init_run:
     wfcinit      :      0.00s CPU      0.10s WALL (      12 calls)
     potinit      :      0.01s CPU      0.13s WALL (      12 calls)
     hinit0       :      0.34s CPU      0.34s WALL (      12 calls)

     Called by electrons:
     c_bands      :   6304.12s CPU   6532.28s WALL (      12 calls)
     v_of_rho     :      0.01s CPU      0.01s WALL (      13 calls)

     Called by c_bands:
     init_us_2    :    698.72s CPU    755.24s WALL ( 5271624 calls)
     init_us_2:cp :    686.12s CPU    742.91s WALL ( 5271624 calls)
     cegterg      :   5516.71s CPU   5647.81s WALL (  120784 calls)

     Called by *egterg:
     cdiaghg      :   1890.34s CPU   1927.75s WALL ( 2204436 calls)
     h_psi        : 139445.29s CPU 144291.93s WALL (71464877 calls)
     g_psi        :     16.65s CPU     17.01s WALL ( 2175636 calls)

     Called by h_psi:
     h_psi:calbec :   5040.46s CPU   5207.31s WALL (71464877 calls)
     vloc_psi     : 131699.19s CPU 136276.46s WALL (71464877 calls)
     add_vuspsi   :   1981.69s CPU   2060.71s WALL (71464877 calls)

     General routines
     calbec       :   7715.46s CPU   7992.42s WALL (******** calls)
     fft          :     10.71s CPU     11.32s WALL (   55448 calls)
     ffts         :    512.41s CPU    526.78s WALL (  906960 calls)
     fftw         : 170971.01s CPU 176602.19s WALL (******** calls)
     davcio       :    757.84s CPU   4228.24s WALL (19319282 calls)
 
     Parallel routines
 
     PHONON       :   2d11h13m CPU   2d14h31m WALL

     INITIALIZATION: 
     phq_setup    :      1.52s CPU      2.41s WALL (      12 calls)
     phq_init     :     34.28s CPU     35.91s WALL (      12 calls)
 
     phq_init     :     34.28s CPU     35.91s WALL (      12 calls)
     set_drhoc    :      0.89s CPU      0.90s WALL (      36 calls)
     init_vloc    :      0.13s CPU      0.13s WALL (      13 calls)
     init_us_1    :      0.07s CPU      0.07s WALL (      13 calls)
     init_us_2    :    698.72s CPU    755.24s WALL ( 5271624 calls)
 
     DYNAMICAL MATRIX:
     dynmat0      :     27.35s CPU     28.00s WALL (      12 calls)
     phqscf       : 206830.09s CPU 218464.84s WALL (      12 calls)
     dynmatrix    :      9.85s CPU     13.01s WALL (      12 calls)
 
     phqscf       : 206830.09s CPU 218464.84s WALL (      12 calls)
     solve_linter : 206392.37s CPU 217722.67s WALL (     716 calls)
     drhodv       :    435.30s CPU    462.65s WALL (     716 calls)
 
     dynmat0      :     27.35s CPU     28.00s WALL (      12 calls)
     dynmat_us    :     25.53s CPU     26.02s WALL (      12 calls)
     d2ionq       :      0.85s CPU      0.86s WALL (      12 calls)
     dynmatcc     :      0.93s CPU      0.94s WALL (      12 calls)
 
     dynmat_us    :     25.53s CPU     26.02s WALL (      12 calls)
 
     phqscf       : 206830.09s CPU 218464.84s WALL (      12 calls)
     solve_linter : 206392.37s CPU 217722.67s WALL (     716 calls)
 
     solve_linter : 206392.37s CPU 217722.67s WALL (     716 calls)
     dvqpsi_us    :   3635.31s CPU   3788.65s WALL (  864000 calls)
     sth_kernel   : 202447.28s CPU 212331.84s WALL (    2849 calls)
     apply_dpot_b :   9377.46s CPU   9912.66s WALL ( 2642616 calls)
     ortho        :    445.57s CPU    472.24s WALL ( 3506616 calls)
     cgsolve      : 148737.76s CPU 153959.71s WALL ( 3506616 calls)
     incdrhoscf   :  42245.67s CPU  43240.56s WALL ( 3506616 calls)
     dv_of_drho   :      1.29s CPU      1.42s WALL (    2863 calls)
     mix_pot      :     32.94s CPU    344.37s WALL (    2849 calls)
     psymdvscf    :     22.67s CPU     23.03s WALL (    1805 calls)
 
     dvqpsi_us    :   3635.31s CPU   3788.65s WALL (  864000 calls)
     dvqpsi_us_on :    215.88s CPU    221.90s WALL (  864000 calls)
 
     cgsolve      : 148737.76s CPU 153959.71s WALL ( 3506616 calls)
     ch_psi       : 144904.75s CPU 149966.09s WALL (69139657 calls)
 
     ch_psi       : 144904.75s CPU 149966.09s WALL (69139657 calls)
     h_psi        : 139445.29s CPU 144291.93s WALL (71464877 calls)
     last         :   7555.00s CPU   7831.98s WALL (69139657 calls)
 
     h_psi        : 139445.29s CPU 144291.93s WALL (71464877 calls)
     add_vuspsi   :   1981.69s CPU   2060.71s WALL (71464877 calls)
 
     incdrhoscf   :  42245.67s CPU  43240.56s WALL ( 3506616 calls)
 
 
      General routines
     calbec       :   7715.46s CPU   7992.42s WALL (******** calls)
     fft          :     10.71s CPU     11.32s WALL (   55448 calls)
     ffts         :    512.41s CPU    526.78s WALL (  906960 calls)
     fftw         : 170971.01s CPU 176602.19s WALL (******** calls)
     davcio       :    757.84s CPU   4228.24s WALL (19319282 calls)
     write_rec    :      3.68s CPU   1194.13s WALL (    3565 calls)
 
 
     PHONON       :   2d11h13m CPU   2d14h31m WALL

 
   This run was terminated on:  12:21:25  28May2022            

=------------------------------------------------------------------------------=
   JOB DONE.
=------------------------------------------------------------------------------=
