
     Program PHONON v.7.0 starts on 28May2022 at 12:21:26 

     This program is part of the open-source Quantum ESPRESSO suite
     for quantum simulation of materials; please cite
         "P. Giannozzi et al., J. Phys.:Condens. Matter 21 395502 (2009);
         "P. Giannozzi et al., J. Phys.:Condens. Matter 29 465901 (2017);
         "P. Giannozzi et al., J. Chem. Phys. 152 154105 (2020);
          URL http://www.quantum-espresso.org", 
     in publications or presentations arising from this work. More details at
     http://www.quantum-espresso.org/quote

     Parallel version (MPI), running on    20 processors

     MPI processes distributed on     1 nodes
     R & G space division:  proc/nbgrp/npool/nimage =      20
     74670 MiB available memory on the printing compute node when the environment starts
 
     Reading input from /home/mgrebenyuk/QE/Examples/ThH9/150GPa/4x4x4/elph.in

     Reading xml data from directory:

     ./Th2H18.save/

     IMPORTANT: XC functional enforced from input :
     Exchange-correlation= PZ
                           (   1   1   0   0   0   0   0)
     Any further DFT definition will be discarded
     Please, verify this is what you really want

 
     Parallelization info
     --------------------
     sticks:   dense  smooth     PW     G-vecs:    dense   smooth      PW
     Min          54      54     15                 2194     2194     337
     Max          56      56     16                 2199     2199     344
     Sum        1099    1099    313                43927    43927    6813
 
     Using Slab Decomposition
 
     Reading collected, re-writing distributed wavefunctions


     Dynamical matrices for ( 4, 4, 4)  uniform grid of q-points
     With a half shift
     (  12 q-points):
       N         xq(1)         xq(2)         xq(3) 
       1   0.125000000   0.216506351   0.083812113
       2   0.125000000   0.216506351   0.251436340
       3   0.125000000   0.505181486   0.083812113
       4   0.125000000   0.505181486   0.251436340
       5   0.125000000  -0.360843918   0.083812113
       6   0.125000000  -0.360843918   0.251436340
       7   0.125000000  -0.072168784   0.083812113
       8   0.125000000  -0.072168784   0.251436340
       9   0.375000000   0.649519053   0.083812113
      10   0.375000000   0.649519053   0.251436340
      11   0.375000000  -0.216506351   0.083812113
      12   0.375000000  -0.216506351   0.251436340
     Because shifted q grid is used, q2r will not work !

     Saving dvscf to file. Distribute only q points, not irreducible represetations.

     Calculation of q =    0.1250000   0.2165064   0.0838121

     Subspace diagonalization in iterative solution of the eigenvalue problem:
     a serial algorithm will be used

     [opt_tetra]  Optimized tetrahedron method is used.
 
     Parallelization info
     --------------------
     sticks:   dense  smooth     PW     G-vecs:    dense   smooth      PW
     Min          54      54     16                 2194     2194     362
     Max          56      56     18                 2199     2199     365
     Sum        1099    1099    337                43927    43927    7269
 
     Using Slab Decomposition
 

     Title: 
      Electron-phonon for Th2H18                                                


     bravais-lattice index     =            4
     lattice parameter (alat)  =       7.0655  a.u.
     unit-cell volume          =     455.5684 (a.u.)^3
     number of atoms/cell      =           20
     number of atomic types    =            2
     number of electrons       =        26.00
     number of Kohn-Sham states=           17
     kinetic-energy cutoff     =      80.0000  Ry
     charge density cutoff     =     320.0000  Ry
     Exchange-correlation= PZ
                           (   1   1   0   0   0   0   0)

     celldm(1)=   7.065451  celldm(2)=   0.000000  celldm(3)=   1.491431
     celldm(4)=   0.000000  celldm(5)=   0.000000  celldm(6)=   0.000000

     crystal axes: (cart. coord. in units of alat)
               a(1) = (   1.000000   0.000000   0.000000 )  
               a(2) = (  -0.500000   0.866025   0.000000 )  
               a(3) = (   0.000000   0.000000   1.491431 )  

     reciprocal axes: (cart. coord. in units 2 pi/alat)
               b(1) = (  1.000000  0.577350  0.000000 )  
               b(2) = (  0.000000  1.154701  0.000000 )  
               b(3) = (  0.000000  0.000000  0.670497 )  


     PseudoPot. # 1 for H  read from file:
     ./H.UPF
     MD5 check sum: df8e43189db5a2d7f03d0dd74d71ce72
     Pseudo is Norm-conserving, Zval =  1.0
     Generated in analytical, separable form
     Using radial grid of  929 points,  0 beta functions with: 

     PseudoPot. # 2 for Th read from file:
     ./Th.UPF
     MD5 check sum: a439cebac19eeec3fe133fa10c950477
     Pseudo is Norm-conserving + core correction, Zval =  4.0
     Generated using "atomic" code by A. Dal Corso  v.5.0.99 svn rev. 10869
     Using radial grid of 1289 points,  3 beta functions with: 
                l(1) =   1
                l(2) =   2
                l(3) =   3

     atomic species   valence    mass     pseudopotential
        H              1.00     1.00794     H ( 1.00)
        Th             4.00   232.03806     Th( 1.00)

     24 Sym. Ops., with inversion, found



   Cartesian axes

     site n.     atom                  positions (alat units)
         1           Th  tau(   1) = (   0.5000000   0.2886751   1.1185734  )
         2           Th  tau(   2) = (   0.0000000   0.5773503   0.3728578  )
         3           H   tau(   3) = (   0.0000000   0.0000000   0.3728578  )
         4           H   tau(   4) = (   0.0000000   0.0000000   1.1185734  )
         5           H   tau(   5) = (   0.5000000   0.2886751   0.2322958  )
         6           H   tau(   6) = (   0.0000000   0.5773503   0.9780114  )
         7           H   tau(   7) = (  -0.0000000   0.5773503   1.2591354  )
         8           H   tau(   8) = (   0.5000000   0.2886751   0.5134198  )
         9           H   tau(   9) = (   0.5000000   0.6068623   0.0916360  )
        10           H   tau(  10) = (   0.2244418   0.1295815   0.0916360  )
        11           H   tau(  11) = (   0.7755582   0.1295815   0.0916360  )
        12           H   tau(  12) = (   0.0000000   0.2591631   0.8373516  )
        13           H   tau(  13) = (   0.2755582   0.7364439   0.8373516  )
        14           H   tau(  14) = (  -0.2755582   0.7364439   0.8373516  )
        15           H   tau(  15) = (   0.2755582   0.7364439   1.3997952  )
        16           H   tau(  16) = (  -0.0000000   0.2591631   1.3997952  )
        17           H   tau(  17) = (  -0.2755582   0.7364439   1.3997952  )
        18           H   tau(  18) = (   0.2244418   0.1295815   0.6540796  )
        19           H   tau(  19) = (   0.5000000   0.6068623   0.6540796  )
        20           H   tau(  20) = (   0.7755582   0.1295815   0.6540796  )

     number of k points=  1872 (tetrahedron method)

     Number of k-points >= 100: set verbosity='high' to print them.

     Dense  grid:    43927 G-vectors     FFT dimensions: (  45,  45,  64)

     Estimated max dynamical RAM per process >       3.07 MB

     Estimated total dynamical RAM >      61.39 MB

     The potential is recalculated from file :
     ./_ph0/Th2H18.q_1/Th2H18.save/charge-density

     Starting wfcs are   50 atomic wfcs

     Band Structure Calculation
     Davidson diagonalization with overlap
     c_bands:  1 eigenvalues not converged
     c_bands:  1 eigenvalues not converged
     c_bands:  1 eigenvalues not converged
     c_bands:  1 eigenvalues not converged
     c_bands:  1 eigenvalues not converged
     c_bands:  1 eigenvalues not converged
     c_bands:  1 eigenvalues not converged
     c_bands:  1 eigenvalues not converged
     c_bands:  1 eigenvalues not converged
     c_bands:  1 eigenvalues not converged
     c_bands:  1 eigenvalues not converged
     c_bands:  1 eigenvalues not converged
     c_bands:  1 eigenvalues not converged
     c_bands:  1 eigenvalues not converged
     c_bands:  1 eigenvalues not converged
     c_bands:  1 eigenvalues not converged
     c_bands:  1 eigenvalues not converged
     c_bands:  1 eigenvalues not converged
     c_bands:  1 eigenvalues not converged
     c_bands:  1 eigenvalues not converged
     c_bands:  1 eigenvalues not converged
     c_bands:  1 eigenvalues not converged
     c_bands:  1 eigenvalues not converged
     c_bands:  1 eigenvalues not converged
     c_bands:  1 eigenvalues not converged
     c_bands:  1 eigenvalues not converged
     c_bands:  1 eigenvalues not converged
     c_bands:  1 eigenvalues not converged
     c_bands:  1 eigenvalues not converged
     c_bands:  1 eigenvalues not converged
     c_bands:  1 eigenvalues not converged
     c_bands:  1 eigenvalues not converged
     c_bands:  1 eigenvalues not converged
     c_bands:  1 eigenvalues not converged
     c_bands:  1 eigenvalues not converged
     c_bands:  1 eigenvalues not converged
     c_bands:  1 eigenvalues not converged
     c_bands:  1 eigenvalues not converged
     c_bands:  1 eigenvalues not converged
     c_bands:  1 eigenvalues not converged
     c_bands:  1 eigenvalues not converged
     c_bands:  1 eigenvalues not converged
     c_bands:  1 eigenvalues not converged
     c_bands:  1 eigenvalues not converged
     c_bands:  1 eigenvalues not converged
     c_bands:  1 eigenvalues not converged
     c_bands:  1 eigenvalues not converged
     c_bands:  1 eigenvalues not converged
     c_bands:  1 eigenvalues not converged
     c_bands:  1 eigenvalues not converged
     c_bands:  1 eigenvalues not converged
     c_bands:  1 eigenvalues not converged
     c_bands:  1 eigenvalues not converged
     c_bands:  1 eigenvalues not converged
     c_bands:  1 eigenvalues not converged
     c_bands:  1 eigenvalues not converged
     c_bands:  1 eigenvalues not converged
     c_bands:  1 eigenvalues not converged
     c_bands:  1 eigenvalues not converged
     c_bands:  1 eigenvalues not converged
     c_bands:  1 eigenvalues not converged
     c_bands:  1 eigenvalues not converged
     c_bands:  1 eigenvalues not converged
     c_bands:  1 eigenvalues not converged
     c_bands:  1 eigenvalues not converged
     c_bands:  1 eigenvalues not converged
     c_bands:  1 eigenvalues not converged
     c_bands:  1 eigenvalues not converged
     c_bands:  1 eigenvalues not converged
     c_bands:  1 eigenvalues not converged
     c_bands:  1 eigenvalues not converged
     c_bands:  1 eigenvalues not converged
     c_bands:  1 eigenvalues not converged
     c_bands:  1 eigenvalues not converged
     c_bands:  1 eigenvalues not converged
     c_bands:  1 eigenvalues not converged
     c_bands:  1 eigenvalues not converged
     c_bands:  1 eigenvalues not converged
     c_bands:  1 eigenvalues not converged
     c_bands:  1 eigenvalues not converged
     c_bands:  1 eigenvalues not converged
     c_bands:  1 eigenvalues not converged
     c_bands:  1 eigenvalues not converged
     c_bands:  1 eigenvalues not converged
     c_bands:  1 eigenvalues not converged
     c_bands:  1 eigenvalues not converged
     c_bands:  1 eigenvalues not converged
     c_bands:  1 eigenvalues not converged
     c_bands:  1 eigenvalues not converged
     c_bands:  1 eigenvalues not converged
     c_bands:  1 eigenvalues not converged
     c_bands:  1 eigenvalues not converged
     c_bands:  1 eigenvalues not converged
     c_bands:  1 eigenvalues not converged
     c_bands:  1 eigenvalues not converged
     c_bands:  1 eigenvalues not converged
     c_bands:  1 eigenvalues not converged
     c_bands:  1 eigenvalues not converged
     c_bands:  1 eigenvalues not converged
     c_bands:  1 eigenvalues not converged
     c_bands:  1 eigenvalues not converged
     c_bands:  1 eigenvalues not converged
     c_bands:  1 eigenvalues not converged
     c_bands:  1 eigenvalues not converged
     c_bands:  1 eigenvalues not converged
     c_bands:  1 eigenvalues not converged
     c_bands:  1 eigenvalues not converged
     c_bands:  1 eigenvalues not converged
     c_bands:  1 eigenvalues not converged
     c_bands:  1 eigenvalues not converged
     c_bands:  1 eigenvalues not converged
     c_bands:  1 eigenvalues not converged
     c_bands:  1 eigenvalues not converged
     c_bands:  1 eigenvalues not converged
     c_bands:  1 eigenvalues not converged
     c_bands:  1 eigenvalues not converged
     c_bands:  1 eigenvalues not converged
     c_bands:  1 eigenvalues not converged
     c_bands:  1 eigenvalues not converged
     c_bands:  1 eigenvalues not converged
     c_bands:  1 eigenvalues not converged
     c_bands:  1 eigenvalues not converged
     c_bands:  1 eigenvalues not converged
     c_bands:  1 eigenvalues not converged
     c_bands:  1 eigenvalues not converged
     c_bands:  1 eigenvalues not converged
     c_bands:  1 eigenvalues not converged
     c_bands:  1 eigenvalues not converged
     c_bands:  1 eigenvalues not converged
     c_bands:  1 eigenvalues not converged
     c_bands:  1 eigenvalues not converged
     c_bands:  1 eigenvalues not converged
     c_bands:  1 eigenvalues not converged
     c_bands:  1 eigenvalues not converged
     c_bands:  1 eigenvalues not converged
     c_bands:  1 eigenvalues not converged
     c_bands:  1 eigenvalues not converged
     c_bands:  1 eigenvalues not converged
     c_bands:  1 eigenvalues not converged
     c_bands:  1 eigenvalues not converged
     c_bands:  1 eigenvalues not converged
     c_bands:  1 eigenvalues not converged
     c_bands:  1 eigenvalues not converged
     c_bands:  1 eigenvalues not converged
     c_bands:  1 eigenvalues not converged
     c_bands:  1 eigenvalues not converged
     c_bands:  1 eigenvalues not converged
     c_bands:  1 eigenvalues not converged
     c_bands:  1 eigenvalues not converged
     c_bands:  1 eigenvalues not converged
     c_bands:  1 eigenvalues not converged
     c_bands:  1 eigenvalues not converged
     c_bands:  1 eigenvalues not converged
     c_bands:  1 eigenvalues not converged
     c_bands:  1 eigenvalues not converged
     c_bands:  1 eigenvalues not converged
     c_bands:  1 eigenvalues not converged
     c_bands:  1 eigenvalues not converged
     c_bands:  1 eigenvalues not converged
     c_bands:  1 eigenvalues not converged
     c_bands:  1 eigenvalues not converged
     c_bands:  1 eigenvalues not converged
     c_bands:  1 eigenvalues not converged
     c_bands:  1 eigenvalues not converged
     c_bands:  1 eigenvalues not converged
     c_bands:  1 eigenvalues not converged
     c_bands:  1 eigenvalues not converged
     c_bands:  1 eigenvalues not converged
     c_bands:  1 eigenvalues not converged
     c_bands:  1 eigenvalues not converged
     c_bands:  1 eigenvalues not converged
     c_bands:  1 eigenvalues not converged
     c_bands:  1 eigenvalues not converged
     c_bands:  1 eigenvalues not converged
     c_bands:  1 eigenvalues not converged
     c_bands:  1 eigenvalues not converged
     c_bands:  1 eigenvalues not converged
     c_bands:  1 eigenvalues not converged
     c_bands:  1 eigenvalues not converged
     c_bands:  1 eigenvalues not converged
     c_bands:  1 eigenvalues not converged
     c_bands:  1 eigenvalues not converged
     c_bands:  1 eigenvalues not converged
     c_bands:  1 eigenvalues not converged
     c_bands:  1 eigenvalues not converged
     c_bands:  1 eigenvalues not converged
     c_bands:  1 eigenvalues not converged
     c_bands:  1 eigenvalues not converged
     c_bands:  1 eigenvalues not converged
     c_bands:  1 eigenvalues not converged
     c_bands:  1 eigenvalues not converged
     c_bands:  1 eigenvalues not converged
     c_bands:  1 eigenvalues not converged
     c_bands:  1 eigenvalues not converged
     c_bands:  1 eigenvalues not converged
     c_bands:  1 eigenvalues not converged
     c_bands:  1 eigenvalues not converged
     c_bands:  1 eigenvalues not converged
     c_bands:  1 eigenvalues not converged
     c_bands:  1 eigenvalues not converged
     c_bands:  1 eigenvalues not converged
     c_bands:  1 eigenvalues not converged
     c_bands:  1 eigenvalues not converged
     c_bands:  1 eigenvalues not converged
     c_bands:  1 eigenvalues not converged
     c_bands:  1 eigenvalues not converged
     c_bands:  1 eigenvalues not converged
     c_bands:  1 eigenvalues not converged
     c_bands:  1 eigenvalues not converged
     c_bands:  1 eigenvalues not converged
     c_bands:  1 eigenvalues not converged

     ethr =  3.85E-11,  avg # of iterations = 75.0

     total cpu time spent up to now is      767.1 secs

     End of band structure calculation

     Number of k-points >= 100: set verbosity='high' to print the bands.

     the Fermi energy is    12.0947 ev

     Writing config to output data dir ./_ph0/Th2H18.q_1/Th2H18.save/
 
     [dfpt_tetra]  Dos(E_F)[/Ry] :   0.1566517E+02

      Electron-phonon for Th2H18                                                

     bravais-lattice index     =            4
     lattice parameter (alat)  =       7.0655  a.u.
     unit-cell volume          =     455.5684 (a.u.)^3
     number of atoms/cell      =           20
     number of atomic types    =            2
     kinetic-energy cut-off    =      80.0000  Ry
     charge density cut-off    =     320.0000  Ry
     convergence threshold     =      1.0E-08
     beta                      =       0.7000
     number of iterations used =            4
     Exchange-correlation= PZ
                           (   1   1   0   0   0   0   0)


     celldm(1)=    7.06545  celldm(2)=    0.00000  celldm(3)=    1.49143
     celldm(4)=    0.00000  celldm(5)=    0.00000  celldm(6)=    0.00000

     crystal axes: (cart. coord. in units of alat)
               a(1) = (  1.0000  0.0000  0.0000 )  
               a(2) = ( -0.5000  0.8660  0.0000 )  
               a(3) = (  0.0000  0.0000  1.4914 )  

     reciprocal axes: (cart. coord. in units 2 pi/alat)
               b(1) = (  1.0000  0.5774  0.0000 )  
               b(2) = (  0.0000  1.1547  0.0000 )  
               b(3) = (  0.0000  0.0000  0.6705 )  


     Atoms inside the unit cell: 

     Cartesian axes

     site n.  atom      mass           positions (alat units)
        1     Th 232.0381   tau(    1) = (    0.50000    0.28868    1.11857  )
        2     Th 232.0381   tau(    2) = (    0.00000    0.57735    0.37286  )
        3     H    1.0079   tau(    3) = (    0.00000    0.00000    0.37286  )
        4     H    1.0079   tau(    4) = (    0.00000    0.00000    1.11857  )
        5     H    1.0079   tau(    5) = (    0.50000    0.28868    0.23230  )
        6     H    1.0079   tau(    6) = (    0.00000    0.57735    0.97801  )
        7     H    1.0079   tau(    7) = (   -0.00000    0.57735    1.25914  )
        8     H    1.0079   tau(    8) = (    0.50000    0.28868    0.51342  )
        9     H    1.0079   tau(    9) = (    0.50000    0.60686    0.09164  )
       10     H    1.0079   tau(   10) = (    0.22444    0.12958    0.09164  )
       11     H    1.0079   tau(   11) = (    0.77556    0.12958    0.09164  )
       12     H    1.0079   tau(   12) = (    0.00000    0.25916    0.83735  )
       13     H    1.0079   tau(   13) = (    0.27556    0.73644    0.83735  )
       14     H    1.0079   tau(   14) = (   -0.27556    0.73644    0.83735  )
       15     H    1.0079   tau(   15) = (    0.27556    0.73644    1.39980  )
       16     H    1.0079   tau(   16) = (   -0.00000    0.25916    1.39980  )
       17     H    1.0079   tau(   17) = (   -0.27556    0.73644    1.39980  )
       18     H    1.0079   tau(   18) = (    0.22444    0.12958    0.65408  )
       19     H    1.0079   tau(   19) = (    0.50000    0.60686    0.65408  )
       20     H    1.0079   tau(   20) = (    0.77556    0.12958    0.65408  )

     Computing dynamical matrix for 
                    q = (   0.1250000   0.2165064   0.0838121 )
 
      2 Sym.Ops. (no q -> -q+G )


     G cutoff =  404.6412  (   2195 G-vectors)     FFT grid: ( 45, 45, 64)
     number of k points=  1872

     PseudoPot. # 1 for H  read from file:
     ./H.UPF
     MD5 check sum: df8e43189db5a2d7f03d0dd74d71ce72
     Pseudo is Norm-conserving, Zval =  1.0
     Generated in analytical, separable form
     Using radial grid of  929 points,  0 beta functions with: 

     PseudoPot. # 2 for Th read from file:
     ./Th.UPF
     MD5 check sum: a439cebac19eeec3fe133fa10c950477
     Pseudo is Norm-conserving + core correction, Zval =  4.0
     Generated using "atomic" code by A. Dal Corso  v.5.0.99 svn rev. 10869
     Using radial grid of 1289 points,  3 beta functions with: 
                l(1) =   1
                l(2) =   2
                l(3) =   3

     Mode symmetry, C_s (m)     point group:


     Atomic displacements:
     There are   60 irreducible representations

     Representation     1      1 modes -  To be done

     Representation     2      1 modes -  To be done

     Representation     3      1 modes -  To be done

     Representation     4      1 modes -  To be done

     Representation     5      1 modes -  To be done

     Representation     6      1 modes -  To be done

     Representation     7      1 modes -  To be done

     Representation     8      1 modes -  To be done

     Representation     9      1 modes -  To be done

     Representation    10      1 modes -  To be done

     Representation    11      1 modes -  To be done

     Representation    12      1 modes -  To be done

     Representation    13      1 modes -  To be done

     Representation    14      1 modes -  To be done

     Representation    15      1 modes -  To be done

     Representation    16      1 modes -  To be done

     Representation    17      1 modes -  To be done

     Representation    18      1 modes -  To be done

     Representation    19      1 modes -  To be done

     Representation    20      1 modes -  To be done

     Representation    21      1 modes -  To be done

     Representation    22      1 modes -  To be done

     Representation    23      1 modes -  To be done

     Representation    24      1 modes -  To be done

     Representation    25      1 modes -  To be done

     Representation    26      1 modes -  To be done

     Representation    27      1 modes -  To be done

     Representation    28      1 modes -  To be done

     Representation    29      1 modes -  To be done

     Representation    30      1 modes -  To be done

     Representation    31      1 modes -  To be done

     Representation    32      1 modes -  To be done

     Representation    33      1 modes -  To be done

     Representation    34      1 modes -  To be done

     Representation    35      1 modes -  To be done

     Representation    36      1 modes -  To be done

     Representation    37      1 modes -  To be done

     Representation    38      1 modes -  To be done

     Representation    39      1 modes -  To be done

     Representation    40      1 modes -  To be done

     Representation    41      1 modes -  To be done

     Representation    42      1 modes -  To be done

     Representation    43      1 modes -  To be done

     Representation    44      1 modes -  To be done

     Representation    45      1 modes -  To be done

     Representation    46      1 modes -  To be done

     Representation    47      1 modes -  To be done

     Representation    48      1 modes -  To be done

     Representation    49      1 modes -  To be done

     Representation    50      1 modes -  To be done

     Representation    51      1 modes -  To be done

     Representation    52      1 modes -  To be done

     Representation    53      1 modes -  To be done

     Representation    54      1 modes -  To be done

     Representation    55      1 modes -  To be done

     Representation    56      1 modes -  To be done

     Representation    57      1 modes -  To be done

     Representation    58      1 modes -  To be done

     Representation    59      1 modes -  To be done

     Representation    60      1 modes -  To be done


     PHONON       :  11m59.62s CPU  13m14.39s WALL

     Reading dVscf from file dv
     Reading dynamics matrix from file Th2H18.dyn1

     Diagonalizing the dynamical matrix

     q = (    0.125000000   0.216506351   0.083812113 ) 

 **************************************************************************
     freq (    1) =     -18.593890 [THz] =    -620.225417 [cm-1]
     freq (    2) =     -15.346783 [THz] =    -511.913586 [cm-1]
     freq (    3) =     -13.681661 [THz] =    -456.371083 [cm-1]
     freq (    4) =       3.701233 [THz] =     123.459833 [cm-1]
     freq (    5) =       3.958640 [THz] =     132.046023 [cm-1]
     freq (    6) =       4.969901 [THz] =     165.778064 [cm-1]
     freq (    7) =       5.059466 [THz] =     168.765610 [cm-1]
     freq (    8) =       5.809030 [THz] =     193.768378 [cm-1]
     freq (    9) =       6.251519 [THz] =     208.528234 [cm-1]
     freq (   10) =      21.197707 [THz] =     707.079410 [cm-1]
     freq (   11) =      24.267889 [THz] =     809.489633 [cm-1]
     freq (   12) =      25.099360 [THz] =     837.224534 [cm-1]
     freq (   13) =      25.705061 [THz] =     857.428526 [cm-1]
     freq (   14) =      26.089361 [THz] =     870.247412 [cm-1]
     freq (   15) =      27.181596 [THz] =     906.680449 [cm-1]
     freq (   16) =      27.648926 [THz] =     922.268897 [cm-1]
     freq (   17) =      28.778751 [THz] =     959.955799 [cm-1]
     freq (   18) =      30.054777 [THz] =    1002.519462 [cm-1]
     freq (   19) =      30.980916 [THz] =    1033.412126 [cm-1]
     freq (   20) =      32.238324 [THz] =    1075.354742 [cm-1]
     freq (   21) =      33.009421 [THz] =    1101.075765 [cm-1]
     freq (   22) =      33.272886 [THz] =    1109.864011 [cm-1]
     freq (   23) =      33.352540 [THz] =    1112.520993 [cm-1]
     freq (   24) =      34.150451 [THz] =    1139.136443 [cm-1]
     freq (   25) =      34.567802 [THz] =    1153.057748 [cm-1]
     freq (   26) =      35.651657 [THz] =    1189.211282 [cm-1]
     freq (   27) =      35.866765 [THz] =    1196.386500 [cm-1]
     freq (   28) =      37.606421 [THz] =    1254.415164 [cm-1]
     freq (   29) =      38.683957 [THz] =    1290.357913 [cm-1]
     freq (   30) =      38.854672 [THz] =    1296.052341 [cm-1]
     freq (   31) =      39.927217 [THz] =    1331.828599 [cm-1]
     freq (   32) =      40.347122 [THz] =    1345.835112 [cm-1]
     freq (   33) =      40.509870 [THz] =    1351.263821 [cm-1]
     freq (   34) =      40.848888 [THz] =    1362.572238 [cm-1]
     freq (   35) =      41.501075 [THz] =    1384.326867 [cm-1]
     freq (   36) =      41.699085 [THz] =    1390.931749 [cm-1]
     freq (   37) =      41.860169 [THz] =    1396.304934 [cm-1]
     freq (   38) =      43.013006 [THz] =    1434.759455 [cm-1]
     freq (   39) =      44.185208 [THz] =    1473.859896 [cm-1]
     freq (   40) =      44.306640 [THz] =    1477.910437 [cm-1]
     freq (   41) =      44.773609 [THz] =    1493.486853 [cm-1]
     freq (   42) =      45.907601 [THz] =    1531.312739 [cm-1]
     freq (   43) =      46.439579 [THz] =    1549.057616 [cm-1]
     freq (   44) =      46.587060 [THz] =    1553.977065 [cm-1]
     freq (   45) =      46.799543 [THz] =    1561.064736 [cm-1]
     freq (   46) =      46.824170 [THz] =    1561.886194 [cm-1]
     freq (   47) =      47.548695 [THz] =    1586.053735 [cm-1]
     freq (   48) =      48.283111 [THz] =    1610.551225 [cm-1]
     freq (   49) =      49.126428 [THz] =    1638.681262 [cm-1]
     freq (   50) =      49.138528 [THz] =    1639.084877 [cm-1]
     freq (   51) =      51.460457 [THz] =    1716.536063 [cm-1]
     freq (   52) =      51.948707 [THz] =    1732.822340 [cm-1]
     freq (   53) =      54.485952 [THz] =    1817.455734 [cm-1]
     freq (   54) =      54.841133 [THz] =    1829.303295 [cm-1]
     freq (   55) =      55.837041 [THz] =    1862.523213 [cm-1]
     freq (   56) =      56.031784 [THz] =    1869.019139 [cm-1]
     freq (   57) =      58.414647 [THz] =    1948.502902 [cm-1]
     freq (   58) =      59.315368 [THz] =    1978.547700 [cm-1]
     freq (   59) =      66.300369 [THz] =    2211.542247 [cm-1]
     freq (   60) =      67.063868 [THz] =    2237.009833 [cm-1]
 **************************************************************************

     [elph_tetra]   Lowest band which contains FS :         12
     [elph_tetra]  Highest band which contains FS :         15
     [elph_tetra]    # of bands which contains FS :          4
 
     Tetrahedron method
     DOS =  7.832584 states/spin/Ry/Unit Cell at Ef= 12.094668 eV
     double delta at Ef =117.241582
     lambda(    1)=  0.0000   gamma=    0.00 GHz
     lambda(    2)=  0.0000   gamma=    0.00 GHz
     lambda(    3)=  0.0000   gamma=    0.00 GHz
     lambda(    4)=  0.0132   gamma=    1.35 GHz
     lambda(    5)=  0.0123   gamma=    1.44 GHz
     lambda(    6)=  0.0034   gamma=    0.64 GHz
     lambda(    7)=  0.0081   gamma=    1.55 GHz
     lambda(    8)=  0.0239   gamma=    6.02 GHz
     lambda(    9)=  0.0142   gamma=    4.15 GHz
     lambda(   10)=  0.0413   gamma=  138.77 GHz
     lambda(   11)=  0.0432   gamma=  190.47 GHz
     lambda(   12)=  0.0176   gamma=   82.88 GHz
     lambda(   13)=  0.0323   gamma=  159.50 GHz
     lambda(   14)=  0.0164   gamma=   83.44 GHz
     lambda(   15)=  0.0194   gamma=  107.03 GHz
     lambda(   16)=  0.0301   gamma=  172.20 GHz
     lambda(   17)=  0.0231   gamma=  143.04 GHz
     lambda(   18)=  0.0116   gamma=   78.13 GHz
     lambda(   19)=  0.0334   gamma=  239.70 GHz
     lambda(   20)=  0.0081   gamma=   63.05 GHz
     lambda(   21)=  0.0149   gamma=  121.47 GHz
     lambda(   22)=  0.0114   gamma=   94.59 GHz
     lambda(   23)=  0.0080   gamma=   66.31 GHz
     lambda(   24)=  0.0117   gamma=  101.93 GHz
     lambda(   25)=  0.0196   gamma=  174.76 GHz
     lambda(   26)=  0.0202   gamma=  191.66 GHz
     lambda(   27)=  0.0155   gamma=  148.87 GHz
     lambda(   28)=  0.0249   gamma=  263.04 GHz
     lambda(   29)=  0.0204   gamma=  228.12 GHz
     lambda(   30)=  0.0195   gamma=  220.51 GHz
     lambda(   31)=  0.0270   gamma=  321.63 GHz
     lambda(   32)=  0.0058   gamma=   70.97 GHz
     lambda(   33)=  0.0099   gamma=  121.49 GHz
     lambda(   34)=  0.0087   gamma=  108.49 GHz
     lambda(   35)=  0.0052   gamma=   66.66 GHz
     lambda(   36)=  0.0066   gamma=   86.03 GHz
     lambda(   37)=  0.0050   gamma=   64.91 GHz
     lambda(   38)=  0.0079   gamma=  109.73 GHz
     lambda(   39)=  0.0057   gamma=   83.16 GHz
     lambda(   40)=  0.0052   gamma=   75.82 GHz
     lambda(   41)=  0.0060   gamma=   90.61 GHz
     lambda(   42)=  0.0072   gamma=  112.84 GHz
     lambda(   43)=  0.0134   gamma=  215.76 GHz
     lambda(   44)=  0.0057   gamma=   91.95 GHz
     lambda(   45)=  0.0019   gamma=   31.64 GHz
     lambda(   46)=  0.0061   gamma=  100.55 GHz
     lambda(   47)=  0.0041   gamma=   70.15 GHz
     lambda(   48)=  0.0060   gamma=  105.09 GHz
     lambda(   49)=  0.0070   gamma=  126.00 GHz
     lambda(   50)=  0.0053   gamma=   96.05 GHz
     lambda(   51)=  0.0054   gamma=  106.48 GHz
     lambda(   52)=  0.0039   gamma=   79.24 GHz
     lambda(   53)=  0.0041   gamma=   91.88 GHz
     lambda(   54)=  0.0047   gamma=  106.77 GHz
     lambda(   55)=  0.0057   gamma=  132.39 GHz
     lambda(   56)=  0.0059   gamma=  138.01 GHz
     lambda(   57)=  0.0044   gamma=  111.31 GHz
     lambda(   58)=  0.0054   gamma=  140.98 GHz
     lambda(   59)=  0.0024   gamma=   78.91 GHz
     lambda(   60)=  0.0056   gamma=  188.72 GHz
 
     Number of q in the star =   12
     List of q in the star:
          1   0.125000000   0.216506351   0.083812113
          2  -0.125000000   0.216506351  -0.083812113
          3   0.125000000  -0.216506351  -0.083812113
          4  -0.125000000   0.216506351   0.083812113
          5   0.250000000  -0.000000000   0.083812113
          6  -0.250000000   0.000000000   0.083812113
          7   0.125000000  -0.216506351   0.083812113
          8  -0.125000000  -0.216506351  -0.083812113
          9   0.250000000  -0.000000000  -0.083812113
         10  -0.250000000   0.000000000  -0.083812113
         11   0.125000000   0.216506351  -0.083812113
         12  -0.125000000  -0.216506351   0.083812113

     Calculation of q =    0.1250000   0.2165064   0.2514363
     [opt_tetra]  Optimized tetrahedron method is used.
 
     Parallelization info
     --------------------
     sticks:   dense  smooth     PW     G-vecs:    dense   smooth      PW
     Min          54      54     16                 2194     2194     368
     Max          56      56     18                 2199     2199     373
     Sum        1099    1099    337                43927    43927    7413
 
     Using Slab Decomposition
 

     Title: 
      Electron-phonon for Th2H18                                                


     bravais-lattice index     =            4
     lattice parameter (alat)  =       7.0655  a.u.
     unit-cell volume          =     455.5684 (a.u.)^3
     number of atoms/cell      =           20
     number of atomic types    =            2
     number of electrons       =        26.00
     number of Kohn-Sham states=           17
     kinetic-energy cutoff     =      80.0000  Ry
     charge density cutoff     =     320.0000  Ry
     Exchange-correlation= PZ
                           (   1   1   0   0   0   0   0)

     celldm(1)=   7.065451  celldm(2)=   0.000000  celldm(3)=   1.491431
     celldm(4)=   0.000000  celldm(5)=   0.000000  celldm(6)=   0.000000

     crystal axes: (cart. coord. in units of alat)
               a(1) = (   1.000000   0.000000   0.000000 )  
               a(2) = (  -0.500000   0.866025   0.000000 )  
               a(3) = (   0.000000   0.000000   1.491431 )  

     reciprocal axes: (cart. coord. in units 2 pi/alat)
               b(1) = (  1.000000  0.577350  0.000000 )  
               b(2) = (  0.000000  1.154701  0.000000 )  
               b(3) = (  0.000000  0.000000  0.670497 )  


     PseudoPot. # 1 for H  read from file:
     ./H.UPF
     MD5 check sum: df8e43189db5a2d7f03d0dd74d71ce72
     Pseudo is Norm-conserving, Zval =  1.0
     Generated in analytical, separable form
     Using radial grid of  929 points,  0 beta functions with: 

     PseudoPot. # 2 for Th read from file:
     ./Th.UPF
     MD5 check sum: a439cebac19eeec3fe133fa10c950477
     Pseudo is Norm-conserving + core correction, Zval =  4.0
     Generated using "atomic" code by A. Dal Corso  v.5.0.99 svn rev. 10869
     Using radial grid of 1289 points,  3 beta functions with: 
                l(1) =   1
                l(2) =   2
                l(3) =   3

     atomic species   valence    mass     pseudopotential
        H              1.00     1.00794     H ( 1.00)
        Th             4.00   232.03806     Th( 1.00)

     24 Sym. Ops., with inversion, found



   Cartesian axes

     site n.     atom                  positions (alat units)
         1           Th  tau(   1) = (   0.5000000   0.2886751   1.1185734  )
         2           Th  tau(   2) = (   0.0000000   0.5773503   0.3728578  )
         3           H   tau(   3) = (   0.0000000   0.0000000   0.3728578  )
         4           H   tau(   4) = (   0.0000000   0.0000000   1.1185734  )
         5           H   tau(   5) = (   0.5000000   0.2886751   0.2322958  )
         6           H   tau(   6) = (   0.0000000   0.5773503   0.9780114  )
         7           H   tau(   7) = (  -0.0000000   0.5773503   1.2591354  )
         8           H   tau(   8) = (   0.5000000   0.2886751   0.5134198  )
         9           H   tau(   9) = (   0.5000000   0.6068623   0.0916360  )
        10           H   tau(  10) = (   0.2244418   0.1295815   0.0916360  )
        11           H   tau(  11) = (   0.7755582   0.1295815   0.0916360  )
        12           H   tau(  12) = (   0.0000000   0.2591631   0.8373516  )
        13           H   tau(  13) = (   0.2755582   0.7364439   0.8373516  )
        14           H   tau(  14) = (  -0.2755582   0.7364439   0.8373516  )
        15           H   tau(  15) = (   0.2755582   0.7364439   1.3997952  )
        16           H   tau(  16) = (  -0.0000000   0.2591631   1.3997952  )
        17           H   tau(  17) = (  -0.2755582   0.7364439   1.3997952  )
        18           H   tau(  18) = (   0.2244418   0.1295815   0.6540796  )
        19           H   tau(  19) = (   0.5000000   0.6068623   0.6540796  )
        20           H   tau(  20) = (   0.7755582   0.1295815   0.6540796  )

     number of k points=  1872 (tetrahedron method)

     Number of k-points >= 100: set verbosity='high' to print them.

     Dense  grid:    43927 G-vectors     FFT dimensions: (  45,  45,  64)

     Estimated max dynamical RAM per process >       3.08 MB

     Estimated total dynamical RAM >      61.51 MB

     The potential is recalculated from file :
     ./_ph0/Th2H18.q_2/Th2H18.save/charge-density

     Starting wfcs are   50 atomic wfcs

     Band Structure Calculation
     Davidson diagonalization with overlap
     c_bands:  1 eigenvalues not converged
     c_bands:  1 eigenvalues not converged
     c_bands:  1 eigenvalues not converged
     c_bands:  1 eigenvalues not converged
     c_bands:  1 eigenvalues not converged
     c_bands:  1 eigenvalues not converged
     c_bands:  1 eigenvalues not converged
     c_bands:  1 eigenvalues not converged
     c_bands:  1 eigenvalues not converged
     c_bands:  1 eigenvalues not converged
     c_bands:  1 eigenvalues not converged
     c_bands:  1 eigenvalues not converged
     c_bands:  1 eigenvalues not converged
     c_bands:  1 eigenvalues not converged
     c_bands:  1 eigenvalues not converged
     c_bands:  1 eigenvalues not converged
     c_bands:  1 eigenvalues not converged
     c_bands:  1 eigenvalues not converged
     c_bands:  1 eigenvalues not converged
     c_bands:  1 eigenvalues not converged
     c_bands:  1 eigenvalues not converged
     c_bands:  1 eigenvalues not converged
     c_bands:  1 eigenvalues not converged
     c_bands:  1 eigenvalues not converged
     c_bands:  1 eigenvalues not converged
     c_bands:  1 eigenvalues not converged
     c_bands:  1 eigenvalues not converged
     c_bands:  1 eigenvalues not converged
     c_bands:  1 eigenvalues not converged
     c_bands:  1 eigenvalues not converged
     c_bands:  1 eigenvalues not converged
     c_bands:  1 eigenvalues not converged
     c_bands:  1 eigenvalues not converged
     c_bands:  1 eigenvalues not converged
     c_bands:  1 eigenvalues not converged
     c_bands:  1 eigenvalues not converged
     c_bands:  1 eigenvalues not converged
     c_bands:  1 eigenvalues not converged
     c_bands:  1 eigenvalues not converged
     c_bands:  1 eigenvalues not converged
     c_bands:  1 eigenvalues not converged
     c_bands:  1 eigenvalues not converged
     c_bands:  1 eigenvalues not converged
     c_bands:  1 eigenvalues not converged
     c_bands:  1 eigenvalues not converged
     c_bands:  1 eigenvalues not converged
     c_bands:  1 eigenvalues not converged
     c_bands:  1 eigenvalues not converged
     c_bands:  1 eigenvalues not converged
     c_bands:  1 eigenvalues not converged
     c_bands:  1 eigenvalues not converged
     c_bands:  1 eigenvalues not converged
     c_bands:  1 eigenvalues not converged
     c_bands:  1 eigenvalues not converged
     c_bands:  1 eigenvalues not converged
     c_bands:  1 eigenvalues not converged
     c_bands:  1 eigenvalues not converged
     c_bands:  1 eigenvalues not converged
     c_bands:  1 eigenvalues not converged
     c_bands:  1 eigenvalues not converged
     c_bands:  1 eigenvalues not converged
     c_bands:  1 eigenvalues not converged
     c_bands:  1 eigenvalues not converged
     c_bands:  1 eigenvalues not converged
     c_bands:  1 eigenvalues not converged
     c_bands:  1 eigenvalues not converged
     c_bands:  1 eigenvalues not converged
     c_bands:  1 eigenvalues not converged
     c_bands:  1 eigenvalues not converged
     c_bands:  1 eigenvalues not converged
     c_bands:  1 eigenvalues not converged
     c_bands:  1 eigenvalues not converged
     c_bands:  1 eigenvalues not converged
     c_bands:  1 eigenvalues not converged
     c_bands:  1 eigenvalues not converged
     c_bands:  1 eigenvalues not converged
     c_bands:  1 eigenvalues not converged
     c_bands:  1 eigenvalues not converged
     c_bands:  1 eigenvalues not converged
     c_bands:  1 eigenvalues not converged
     c_bands:  1 eigenvalues not converged
     c_bands:  1 eigenvalues not converged
     c_bands:  1 eigenvalues not converged
     c_bands:  1 eigenvalues not converged
     c_bands:  1 eigenvalues not converged
     c_bands:  1 eigenvalues not converged
     c_bands:  1 eigenvalues not converged
     c_bands:  1 eigenvalues not converged
     c_bands:  1 eigenvalues not converged
     c_bands:  1 eigenvalues not converged
     c_bands:  1 eigenvalues not converged
     c_bands:  1 eigenvalues not converged
     c_bands:  1 eigenvalues not converged
     c_bands:  1 eigenvalues not converged
     c_bands:  1 eigenvalues not converged
     c_bands:  1 eigenvalues not converged
     c_bands:  1 eigenvalues not converged
     c_bands:  1 eigenvalues not converged
     c_bands:  1 eigenvalues not converged
     c_bands:  1 eigenvalues not converged
     c_bands:  1 eigenvalues not converged
     c_bands:  1 eigenvalues not converged
     c_bands:  1 eigenvalues not converged
     c_bands:  1 eigenvalues not converged
     c_bands:  1 eigenvalues not converged
     c_bands:  1 eigenvalues not converged
     c_bands:  1 eigenvalues not converged
     c_bands:  1 eigenvalues not converged
     c_bands:  1 eigenvalues not converged
     c_bands:  1 eigenvalues not converged
     c_bands:  1 eigenvalues not converged
     c_bands:  1 eigenvalues not converged
     c_bands:  1 eigenvalues not converged
     c_bands:  1 eigenvalues not converged
     c_bands:  1 eigenvalues not converged
     c_bands:  1 eigenvalues not converged
     c_bands:  1 eigenvalues not converged
     c_bands:  1 eigenvalues not converged
     c_bands:  1 eigenvalues not converged
     c_bands:  1 eigenvalues not converged
     c_bands:  1 eigenvalues not converged
     c_bands:  1 eigenvalues not converged
     c_bands:  1 eigenvalues not converged
     c_bands:  1 eigenvalues not converged
     c_bands:  1 eigenvalues not converged
     c_bands:  1 eigenvalues not converged
     c_bands:  1 eigenvalues not converged
     c_bands:  1 eigenvalues not converged
     c_bands:  1 eigenvalues not converged
     c_bands:  1 eigenvalues not converged
     c_bands:  1 eigenvalues not converged
     c_bands:  1 eigenvalues not converged
     c_bands:  1 eigenvalues not converged
     c_bands:  1 eigenvalues not converged
     c_bands:  1 eigenvalues not converged
     c_bands:  1 eigenvalues not converged
     c_bands:  1 eigenvalues not converged
     c_bands:  1 eigenvalues not converged
     c_bands:  1 eigenvalues not converged
     c_bands:  1 eigenvalues not converged
     c_bands:  1 eigenvalues not converged
     c_bands:  1 eigenvalues not converged
     c_bands:  1 eigenvalues not converged
     c_bands:  1 eigenvalues not converged
     c_bands:  1 eigenvalues not converged
     c_bands:  1 eigenvalues not converged
     c_bands:  1 eigenvalues not converged
     c_bands:  1 eigenvalues not converged
     c_bands:  1 eigenvalues not converged
     c_bands:  1 eigenvalues not converged
     c_bands:  1 eigenvalues not converged
     c_bands:  1 eigenvalues not converged
     c_bands:  1 eigenvalues not converged
     c_bands:  1 eigenvalues not converged
     c_bands:  1 eigenvalues not converged
     c_bands:  1 eigenvalues not converged
     c_bands:  1 eigenvalues not converged
     c_bands:  1 eigenvalues not converged
     c_bands:  1 eigenvalues not converged
     c_bands:  1 eigenvalues not converged
     c_bands:  1 eigenvalues not converged
     c_bands:  1 eigenvalues not converged
     c_bands:  1 eigenvalues not converged
     c_bands:  1 eigenvalues not converged
     c_bands:  1 eigenvalues not converged
     c_bands:  1 eigenvalues not converged
     c_bands:  1 eigenvalues not converged
     c_bands:  1 eigenvalues not converged
     c_bands:  1 eigenvalues not converged
     c_bands:  1 eigenvalues not converged
     c_bands:  1 eigenvalues not converged
     c_bands:  1 eigenvalues not converged
     c_bands:  1 eigenvalues not converged
     c_bands:  1 eigenvalues not converged
     c_bands:  1 eigenvalues not converged
     c_bands:  1 eigenvalues not converged
     c_bands:  1 eigenvalues not converged
     c_bands:  1 eigenvalues not converged
     c_bands:  1 eigenvalues not converged
     c_bands:  1 eigenvalues not converged
     c_bands:  1 eigenvalues not converged
     c_bands:  1 eigenvalues not converged
     c_bands:  1 eigenvalues not converged
     c_bands:  1 eigenvalues not converged
     c_bands:  1 eigenvalues not converged
     c_bands:  1 eigenvalues not converged
     c_bands:  1 eigenvalues not converged
     c_bands:  1 eigenvalues not converged
     c_bands:  1 eigenvalues not converged
     c_bands:  1 eigenvalues not converged
     c_bands:  1 eigenvalues not converged
     c_bands:  1 eigenvalues not converged
     c_bands:  1 eigenvalues not converged
     c_bands:  1 eigenvalues not converged
     c_bands:  1 eigenvalues not converged
     c_bands:  1 eigenvalues not converged
     c_bands:  1 eigenvalues not converged
     c_bands:  1 eigenvalues not converged
     c_bands:  1 eigenvalues not converged
     c_bands:  1 eigenvalues not converged
     c_bands:  1 eigenvalues not converged
     c_bands:  1 eigenvalues not converged
     c_bands:  1 eigenvalues not converged
     c_bands:  1 eigenvalues not converged
     c_bands:  1 eigenvalues not converged
     c_bands:  1 eigenvalues not converged
     c_bands:  1 eigenvalues not converged
     c_bands:  1 eigenvalues not converged
     c_bands:  1 eigenvalues not converged
     c_bands:  1 eigenvalues not converged
     c_bands:  1 eigenvalues not converged

     ethr =  3.85E-11,  avg # of iterations = 75.0

     total cpu time spent up to now is     1524.8 secs

     End of band structure calculation

     Number of k-points >= 100: set verbosity='high' to print the bands.

     the Fermi energy is    12.0947 ev

     Writing config to output data dir ./_ph0/Th2H18.q_2/Th2H18.save/
 
     [dfpt_tetra]  Dos(E_F)[/Ry] :   0.1566517E+02

      Electron-phonon for Th2H18                                                

     bravais-lattice index     =            4
     lattice parameter (alat)  =       7.0655  a.u.
     unit-cell volume          =     455.5684 (a.u.)^3
     number of atoms/cell      =           20
     number of atomic types    =            2
     kinetic-energy cut-off    =      80.0000  Ry
     charge density cut-off    =     320.0000  Ry
     convergence threshold     =      1.0E-08
     beta                      =       0.7000
     number of iterations used =            4
     Exchange-correlation= PZ
                           (   1   1   0   0   0   0   0)


     celldm(1)=    7.06545  celldm(2)=    0.00000  celldm(3)=    1.49143
     celldm(4)=    0.00000  celldm(5)=    0.00000  celldm(6)=    0.00000

     crystal axes: (cart. coord. in units of alat)
               a(1) = (  1.0000  0.0000  0.0000 )  
               a(2) = ( -0.5000  0.8660  0.0000 )  
               a(3) = (  0.0000  0.0000  1.4914 )  

     reciprocal axes: (cart. coord. in units 2 pi/alat)
               b(1) = (  1.0000  0.5774  0.0000 )  
               b(2) = (  0.0000  1.1547  0.0000 )  
               b(3) = (  0.0000  0.0000  0.6705 )  


     Atoms inside the unit cell: 

     Cartesian axes

     site n.  atom      mass           positions (alat units)
        1     Th 232.0381   tau(    1) = (    0.50000    0.28868    1.11857  )
        2     Th 232.0381   tau(    2) = (    0.00000    0.57735    0.37286  )
        3     H    1.0079   tau(    3) = (    0.00000    0.00000    0.37286  )
        4     H    1.0079   tau(    4) = (    0.00000    0.00000    1.11857  )
        5     H    1.0079   tau(    5) = (    0.50000    0.28868    0.23230  )
        6     H    1.0079   tau(    6) = (    0.00000    0.57735    0.97801  )
        7     H    1.0079   tau(    7) = (   -0.00000    0.57735    1.25914  )
        8     H    1.0079   tau(    8) = (    0.50000    0.28868    0.51342  )
        9     H    1.0079   tau(    9) = (    0.50000    0.60686    0.09164  )
       10     H    1.0079   tau(   10) = (    0.22444    0.12958    0.09164  )
       11     H    1.0079   tau(   11) = (    0.77556    0.12958    0.09164  )
       12     H    1.0079   tau(   12) = (    0.00000    0.25916    0.83735  )
       13     H    1.0079   tau(   13) = (    0.27556    0.73644    0.83735  )
       14     H    1.0079   tau(   14) = (   -0.27556    0.73644    0.83735  )
       15     H    1.0079   tau(   15) = (    0.27556    0.73644    1.39980  )
       16     H    1.0079   tau(   16) = (   -0.00000    0.25916    1.39980  )
       17     H    1.0079   tau(   17) = (   -0.27556    0.73644    1.39980  )
       18     H    1.0079   tau(   18) = (    0.22444    0.12958    0.65408  )
       19     H    1.0079   tau(   19) = (    0.50000    0.60686    0.65408  )
       20     H    1.0079   tau(   20) = (    0.77556    0.12958    0.65408  )

     Computing dynamical matrix for 
                    q = (   0.1250000   0.2165064   0.2514363 )
 
      2 Sym.Ops. (no q -> -q+G )


     G cutoff =  404.6412  (   2195 G-vectors)     FFT grid: ( 45, 45, 64)
     number of k points=  1872

     PseudoPot. # 1 for H  read from file:
     ./H.UPF
     MD5 check sum: df8e43189db5a2d7f03d0dd74d71ce72
     Pseudo is Norm-conserving, Zval =  1.0
     Generated in analytical, separable form
     Using radial grid of  929 points,  0 beta functions with: 

     PseudoPot. # 2 for Th read from file:
     ./Th.UPF
     MD5 check sum: a439cebac19eeec3fe133fa10c950477
     Pseudo is Norm-conserving + core correction, Zval =  4.0
     Generated using "atomic" code by A. Dal Corso  v.5.0.99 svn rev. 10869
     Using radial grid of 1289 points,  3 beta functions with: 
                l(1) =   1
                l(2) =   2
                l(3) =   3

     Mode symmetry, C_s (m)     point group:


     Atomic displacements:
     There are   58 irreducible representations

     Representation     1      1 modes -  To be done

     Representation     2      1 modes -  To be done

     Representation     3      1 modes -  To be done

     Representation     4      2 modes -  To be done

     Representation     5      1 modes -  To be done

     Representation     6      1 modes -  To be done

     Representation     7      1 modes -  To be done

     Representation     8      1 modes -  To be done

     Representation     9      1 modes -  To be done

     Representation    10      1 modes -  To be done

     Representation    11      1 modes -  To be done

     Representation    12      1 modes -  To be done

     Representation    13      1 modes -  To be done

     Representation    14      1 modes -  To be done

     Representation    15      1 modes -  To be done

     Representation    16      1 modes -  To be done

     Representation    17      1 modes -  To be done

     Representation    18      1 modes -  To be done

     Representation    19      1 modes -  To be done

     Representation    20      2 modes -  To be done

     Representation    21      1 modes -  To be done

     Representation    22      1 modes -  To be done

     Representation    23      1 modes -  To be done

     Representation    24      1 modes -  To be done

     Representation    25      1 modes -  To be done

     Representation    26      1 modes -  To be done

     Representation    27      1 modes -  To be done

     Representation    28      1 modes -  To be done

     Representation    29      1 modes -  To be done

     Representation    30      1 modes -  To be done

     Representation    31      1 modes -  To be done

     Representation    32      1 modes -  To be done

     Representation    33      1 modes -  To be done

     Representation    34      1 modes -  To be done

     Representation    35      1 modes -  To be done

     Representation    36      1 modes -  To be done

     Representation    37      1 modes -  To be done

     Representation    38      1 modes -  To be done

     Representation    39      1 modes -  To be done

     Representation    40      1 modes -  To be done

     Representation    41      1 modes -  To be done

     Representation    42      1 modes -  To be done

     Representation    43      1 modes -  To be done

     Representation    44      1 modes -  To be done

     Representation    45      1 modes -  To be done

     Representation    46      1 modes -  To be done

     Representation    47      1 modes -  To be done

     Representation    48      1 modes -  To be done

     Representation    49      1 modes -  To be done

     Representation    50      1 modes -  To be done

     Representation    51      1 modes -  To be done

     Representation    52      1 modes -  To be done

     Representation    53      1 modes -  To be done

     Representation    54      1 modes -  To be done

     Representation    55      1 modes -  To be done

     Representation    56      1 modes -  To be done

     Representation    57      1 modes -  To be done

     Representation    58      1 modes -  To be done


     PHONON       :  28m26.86s CPU  30m47.20s WALL

     Reading dVscf from file dv
     Reading dynamics matrix from file Th2H18.dyn2

     Diagonalizing the dynamical matrix

     q = (    0.125000000   0.216506351   0.251436340 ) 

 **************************************************************************
     freq (    1) =     -19.785840 [THz] =    -659.984576 [cm-1]
     freq (    2) =       4.190988 [THz] =     139.796314 [cm-1]
     freq (    3) =       4.292044 [THz] =     143.167188 [cm-1]
     freq (    4) =       4.486001 [THz] =     149.636880 [cm-1]
     freq (    5) =       4.568389 [THz] =     152.385052 [cm-1]
     freq (    6) =       5.565700 [THz] =     185.651766 [cm-1]
     freq (    7) =       5.817689 [THz] =     194.057214 [cm-1]
     freq (    8) =      14.168299 [THz] =     472.603577 [cm-1]
     freq (    9) =      21.279992 [THz] =     709.824138 [cm-1]
     freq (   10) =      22.130975 [THz] =     738.209868 [cm-1]
     freq (   11) =      22.605630 [THz] =     754.042636 [cm-1]
     freq (   12) =      23.859116 [THz] =     795.854444 [cm-1]
     freq (   13) =      25.943132 [THz] =     865.369748 [cm-1]
     freq (   14) =      26.103759 [THz] =     870.727685 [cm-1]
     freq (   15) =      28.199759 [THz] =     940.642714 [cm-1]
     freq (   16) =      29.109388 [THz] =     970.984676 [cm-1]
     freq (   17) =      30.748789 [THz] =    1025.669194 [cm-1]
     freq (   18) =      30.986018 [THz] =    1033.582305 [cm-1]
     freq (   19) =      31.439744 [THz] =    1048.716978 [cm-1]
     freq (   20) =      32.478220 [THz] =    1083.356819 [cm-1]
     freq (   21) =      32.942705 [THz] =    1098.850367 [cm-1]
     freq (   22) =      33.716743 [THz] =    1124.669478 [cm-1]
     freq (   23) =      34.446483 [THz] =    1149.011004 [cm-1]
     freq (   24) =      34.571934 [THz] =    1153.195584 [cm-1]
     freq (   25) =      35.986222 [THz] =    1200.371164 [cm-1]
     freq (   26) =      35.998276 [THz] =    1200.773231 [cm-1]
     freq (   27) =      36.110949 [THz] =    1204.531604 [cm-1]
     freq (   28) =      37.577212 [THz] =    1253.440865 [cm-1]
     freq (   29) =      37.768379 [THz] =    1259.817523 [cm-1]
     freq (   30) =      38.543243 [THz] =    1285.664189 [cm-1]
     freq (   31) =      39.315893 [THz] =    1311.437013 [cm-1]
     freq (   32) =      39.596948 [THz] =    1320.812019 [cm-1]
     freq (   33) =      40.448712 [THz] =    1349.223788 [cm-1]
     freq (   34) =      40.503581 [THz] =    1351.054020 [cm-1]
     freq (   35) =      41.210033 [THz] =    1374.618746 [cm-1]
     freq (   36) =      41.429312 [THz] =    1381.933097 [cm-1]
     freq (   37) =      42.586373 [THz] =    1420.528499 [cm-1]
     freq (   38) =      43.134904 [THz] =    1438.825506 [cm-1]
     freq (   39) =      44.068542 [THz] =    1469.968324 [cm-1]
     freq (   40) =      44.561305 [THz] =    1486.405140 [cm-1]
     freq (   41) =      45.151586 [THz] =    1506.094797 [cm-1]
     freq (   42) =      45.286167 [THz] =    1510.583928 [cm-1]
     freq (   43) =      45.555504 [THz] =    1519.568045 [cm-1]
     freq (   44) =      46.459031 [THz] =    1549.706475 [cm-1]
     freq (   45) =      47.375251 [THz] =    1580.268262 [cm-1]
     freq (   46) =      47.467300 [THz] =    1583.338702 [cm-1]
     freq (   47) =      49.048770 [THz] =    1636.090868 [cm-1]
     freq (   48) =      49.207065 [THz] =    1641.370999 [cm-1]
     freq (   49) =      52.117731 [THz] =    1738.460365 [cm-1]
     freq (   50) =      53.108643 [THz] =    1771.513643 [cm-1]
     freq (   51) =      53.123127 [THz] =    1771.996780 [cm-1]
     freq (   52) =      56.658976 [THz] =    1889.940014 [cm-1]
     freq (   53) =      58.221298 [THz] =    1942.053472 [cm-1]
     freq (   54) =      58.705283 [THz] =    1958.197456 [cm-1]
     freq (   55) =      63.013363 [THz] =    2101.899548 [cm-1]
     freq (   56) =      70.801175 [THz] =    2361.672978 [cm-1]
     freq (   57) =      70.944918 [THz] =    2366.467746 [cm-1]
     freq (   58) =      75.724401 [THz] =    2525.894135 [cm-1]
     freq (   59) =      76.955961 [THz] =    2566.974565 [cm-1]
     freq (   60) =      84.343884 [THz] =    2813.409144 [cm-1]
 **************************************************************************

     [elph_tetra]   Lowest band which contains FS :         12
     [elph_tetra]  Highest band which contains FS :         15
     [elph_tetra]    # of bands which contains FS :          4
 
     Tetrahedron method
     DOS =  7.832584 states/spin/Ry/Unit Cell at Ef= 12.094668 eV
     double delta at Ef =116.017107
     lambda(    1)=  0.0000   gamma=    0.00 GHz
     lambda(    2)=  0.0063   gamma=    0.83 GHz
     lambda(    3)=  0.0193   gamma=    2.66 GHz
     lambda(    4)=  0.0174   gamma=    2.62 GHz
     lambda(    5)=  0.0222   gamma=    3.47 GHz
     lambda(    6)=  0.0344   gamma=    7.96 GHz
     lambda(    7)=  0.0254   gamma=    6.43 GHz
     lambda(    8)=  0.0841   gamma=  126.32 GHz
     lambda(    9)=  0.0506   gamma=  171.28 GHz
     lambda(   10)=  0.0370   gamma=  135.53 GHz
     lambda(   11)=  0.0685   gamma=  261.80 GHz
     lambda(   12)=  0.0330   gamma=  140.62 GHz
     lambda(   13)=  0.0303   gamma=  152.43 GHz
     lambda(   14)=  0.0449   gamma=  228.88 GHz
     lambda(   15)=  0.0205   gamma=  121.94 GHz
     lambda(   16)=  0.0237   gamma=  150.43 GHz
     lambda(   17)=  0.0151   gamma=  107.06 GHz
     lambda(   18)=  0.0247   gamma=  177.65 GHz
     lambda(   19)=  0.0148   gamma=  109.35 GHz
     lambda(   20)=  0.0195   gamma=  153.55 GHz
     lambda(   21)=  0.0131   gamma=  106.12 GHz
     lambda(   22)=  0.0120   gamma=  102.24 GHz
     lambda(   23)=  0.0191   gamma=  169.63 GHz
     lambda(   24)=  0.0129   gamma=  115.67 GHz
     lambda(   25)=  0.0217   gamma=  210.41 GHz
     lambda(   26)=  0.0221   gamma=  214.23 GHz
     lambda(   27)=  0.0197   gamma=  192.20 GHz
     lambda(   28)=  0.0332   gamma=  350.68 GHz
     lambda(   29)=  0.0178   gamma=  189.77 GHz
     lambda(   30)=  0.0149   gamma=  165.07 GHz
     lambda(   31)=  0.0114   gamma=  132.27 GHz
     lambda(   32)=  0.0057   gamma=   67.24 GHz
     lambda(   33)=  0.0075   gamma=   92.11 GHz
     lambda(   34)=  0.0040   gamma=   49.40 GHz
     lambda(   35)=  0.0038   gamma=   48.46 GHz
     lambda(   36)=  0.0070   gamma=   90.46 GHz
     lambda(   37)=  0.0072   gamma=   98.07 GHz
     lambda(   38)=  0.0058   gamma=   80.26 GHz
     lambda(   39)=  0.0051   gamma=   73.91 GHz
     lambda(   40)=  0.0026   gamma=   39.23 GHz
     lambda(   41)=  0.0065   gamma=   98.39 GHz
     lambda(   42)=  0.0042   gamma=   63.74 GHz
     lambda(   43)=  0.0066   gamma=  102.01 GHz
     lambda(   44)=  0.0072   gamma=  116.09 GHz
     lambda(   45)=  0.0083   gamma=  139.22 GHz
     lambda(   46)=  0.0103   gamma=  173.84 GHz
     lambda(   47)=  0.0066   gamma=  119.15 GHz
     lambda(   48)=  0.0057   gamma=  103.77 GHz
     lambda(   49)=  0.0051   gamma=  104.19 GHz
     lambda(   50)=  0.0069   gamma=  144.78 GHz
     lambda(   51)=  0.0129   gamma=  271.84 GHz
     lambda(   52)=  0.0034   gamma=   82.53 GHz
     lambda(   53)=  0.0035   gamma=   87.93 GHz
     lambda(   54)=  0.0064   gamma=  163.89 GHz
     lambda(   55)=  0.0042   gamma=  125.88 GHz
     lambda(   56)=  0.0028   gamma=  104.01 GHz
     lambda(   57)=  0.0038   gamma=  142.94 GHz
     lambda(   58)=  0.0012   gamma=   50.93 GHz
     lambda(   59)=  0.0020   gamma=   90.62 GHz
     lambda(   60)=  0.0015   gamma=   80.18 GHz
 
     Number of q in the star =   12
     List of q in the star:
          1   0.125000000   0.216506351   0.251436340
          2  -0.125000000   0.216506351  -0.251436340
          3   0.125000000  -0.216506351  -0.251436340
          4  -0.125000000   0.216506351   0.251436340
          5   0.250000000  -0.000000000   0.251436340
          6  -0.250000000   0.000000000   0.251436340
          7   0.125000000  -0.216506351   0.251436340
          8  -0.125000000  -0.216506351  -0.251436340
          9   0.250000000  -0.000000000  -0.251436340
         10  -0.250000000   0.000000000  -0.251436340
         11   0.125000000   0.216506351  -0.251436340
         12  -0.125000000  -0.216506351   0.251436340

     Calculation of q =    0.1250000   0.5051815   0.0838121
     [opt_tetra]  Optimized tetrahedron method is used.
 
     Parallelization info
     --------------------
     sticks:   dense  smooth     PW     G-vecs:    dense   smooth      PW
     Min          54      54     17                 2194     2194     387
     Max          56      56     18                 2199     2199     392
     Sum        1099    1099    349                43927    43927    7785
 
     Using Slab Decomposition
 

     Title: 
      Electron-phonon for Th2H18                                                


     bravais-lattice index     =            4
     lattice parameter (alat)  =       7.0655  a.u.
     unit-cell volume          =     455.5684 (a.u.)^3
     number of atoms/cell      =           20
     number of atomic types    =            2
     number of electrons       =        26.00
     number of Kohn-Sham states=           17
     kinetic-energy cutoff     =      80.0000  Ry
     charge density cutoff     =     320.0000  Ry
     Exchange-correlation= PZ
                           (   1   1   0   0   0   0   0)

     celldm(1)=   7.065451  celldm(2)=   0.000000  celldm(3)=   1.491431
     celldm(4)=   0.000000  celldm(5)=   0.000000  celldm(6)=   0.000000

     crystal axes: (cart. coord. in units of alat)
               a(1) = (   1.000000   0.000000   0.000000 )  
               a(2) = (  -0.500000   0.866025   0.000000 )  
               a(3) = (   0.000000   0.000000   1.491431 )  

     reciprocal axes: (cart. coord. in units 2 pi/alat)
               b(1) = (  1.000000  0.577350  0.000000 )  
               b(2) = (  0.000000  1.154701  0.000000 )  
               b(3) = (  0.000000  0.000000  0.670497 )  


     PseudoPot. # 1 for H  read from file:
     ./H.UPF
     MD5 check sum: df8e43189db5a2d7f03d0dd74d71ce72
     Pseudo is Norm-conserving, Zval =  1.0
     Generated in analytical, separable form
     Using radial grid of  929 points,  0 beta functions with: 

     PseudoPot. # 2 for Th read from file:
     ./Th.UPF
     MD5 check sum: a439cebac19eeec3fe133fa10c950477
     Pseudo is Norm-conserving + core correction, Zval =  4.0
     Generated using "atomic" code by A. Dal Corso  v.5.0.99 svn rev. 10869
     Using radial grid of 1289 points,  3 beta functions with: 
                l(1) =   1
                l(2) =   2
                l(3) =   3

     atomic species   valence    mass     pseudopotential
        H              1.00     1.00794     H ( 1.00)
        Th             4.00   232.03806     Th( 1.00)

     24 Sym. Ops., with inversion, found



   Cartesian axes

     site n.     atom                  positions (alat units)
         1           Th  tau(   1) = (   0.5000000   0.2886751   1.1185734  )
         2           Th  tau(   2) = (   0.0000000   0.5773503   0.3728578  )
         3           H   tau(   3) = (   0.0000000   0.0000000   0.3728578  )
         4           H   tau(   4) = (   0.0000000   0.0000000   1.1185734  )
         5           H   tau(   5) = (   0.5000000   0.2886751   0.2322958  )
         6           H   tau(   6) = (   0.0000000   0.5773503   0.9780114  )
         7           H   tau(   7) = (  -0.0000000   0.5773503   1.2591354  )
         8           H   tau(   8) = (   0.5000000   0.2886751   0.5134198  )
         9           H   tau(   9) = (   0.5000000   0.6068623   0.0916360  )
        10           H   tau(  10) = (   0.2244418   0.1295815   0.0916360  )
        11           H   tau(  11) = (   0.7755582   0.1295815   0.0916360  )
        12           H   tau(  12) = (   0.0000000   0.2591631   0.8373516  )
        13           H   tau(  13) = (   0.2755582   0.7364439   0.8373516  )
        14           H   tau(  14) = (  -0.2755582   0.7364439   0.8373516  )
        15           H   tau(  15) = (   0.2755582   0.7364439   1.3997952  )
        16           H   tau(  16) = (  -0.0000000   0.2591631   1.3997952  )
        17           H   tau(  17) = (  -0.2755582   0.7364439   1.3997952  )
        18           H   tau(  18) = (   0.2244418   0.1295815   0.6540796  )
        19           H   tau(  19) = (   0.5000000   0.6068623   0.6540796  )
        20           H   tau(  20) = (   0.7755582   0.1295815   0.6540796  )

     number of k points=  3456 (tetrahedron method)

     Number of k-points >= 100: set verbosity='high' to print them.

     Dense  grid:    43927 G-vectors     FFT dimensions: (  45,  45,  64)

     Estimated max dynamical RAM per process >       3.09 MB

     Estimated total dynamical RAM >      61.71 MB

     The potential is recalculated from file :
     ./_ph0/Th2H18.q_3/Th2H18.save/charge-density

     Starting wfcs are   50 atomic wfcs

     Band Structure Calculation
     Davidson diagonalization with overlap
     c_bands:  1 eigenvalues not converged
     c_bands:  1 eigenvalues not converged
     c_bands:  1 eigenvalues not converged
     c_bands:  1 eigenvalues not converged
     c_bands:  1 eigenvalues not converged
     c_bands:  1 eigenvalues not converged
     c_bands:  1 eigenvalues not converged
     c_bands:  1 eigenvalues not converged
     c_bands:  1 eigenvalues not converged
     c_bands:  1 eigenvalues not converged
     c_bands:  1 eigenvalues not converged
     c_bands:  1 eigenvalues not converged
     c_bands:  1 eigenvalues not converged
     c_bands:  1 eigenvalues not converged
     c_bands:  1 eigenvalues not converged
     c_bands:  1 eigenvalues not converged
     c_bands:  1 eigenvalues not converged
     c_bands:  1 eigenvalues not converged
     c_bands:  1 eigenvalues not converged
     c_bands:  1 eigenvalues not converged
     c_bands:  1 eigenvalues not converged
     c_bands:  1 eigenvalues not converged
     c_bands:  1 eigenvalues not converged
     c_bands:  1 eigenvalues not converged
     c_bands:  1 eigenvalues not converged
     c_bands:  1 eigenvalues not converged
     c_bands:  1 eigenvalues not converged
     c_bands:  1 eigenvalues not converged
     c_bands:  1 eigenvalues not converged
     c_bands:  1 eigenvalues not converged
     c_bands:  1 eigenvalues not converged
     c_bands:  1 eigenvalues not converged
     c_bands:  1 eigenvalues not converged
     c_bands:  1 eigenvalues not converged
     c_bands:  1 eigenvalues not converged
     c_bands:  1 eigenvalues not converged
     c_bands:  1 eigenvalues not converged
     c_bands:  1 eigenvalues not converged
     c_bands:  1 eigenvalues not converged
     c_bands:  1 eigenvalues not converged
     c_bands:  1 eigenvalues not converged
     c_bands:  1 eigenvalues not converged
     c_bands:  1 eigenvalues not converged
     c_bands:  1 eigenvalues not converged
     c_bands:  1 eigenvalues not converged
     c_bands:  1 eigenvalues not converged
     c_bands:  1 eigenvalues not converged
     c_bands:  1 eigenvalues not converged
     c_bands:  1 eigenvalues not converged
     c_bands:  1 eigenvalues not converged
     c_bands:  1 eigenvalues not converged
     c_bands:  1 eigenvalues not converged
     c_bands:  1 eigenvalues not converged
     c_bands:  1 eigenvalues not converged
     c_bands:  1 eigenvalues not converged
     c_bands:  1 eigenvalues not converged
     c_bands:  1 eigenvalues not converged
     c_bands:  1 eigenvalues not converged
     c_bands:  1 eigenvalues not converged
     c_bands:  1 eigenvalues not converged
     c_bands:  1 eigenvalues not converged
     c_bands:  1 eigenvalues not converged
     c_bands:  1 eigenvalues not converged
     c_bands:  1 eigenvalues not converged
     c_bands:  1 eigenvalues not converged
     c_bands:  1 eigenvalues not converged
     c_bands:  1 eigenvalues not converged
     c_bands:  1 eigenvalues not converged
     c_bands:  1 eigenvalues not converged
     c_bands:  1 eigenvalues not converged
     c_bands:  1 eigenvalues not converged
     c_bands:  1 eigenvalues not converged
     c_bands:  1 eigenvalues not converged
     c_bands:  1 eigenvalues not converged
     c_bands:  1 eigenvalues not converged
     c_bands:  1 eigenvalues not converged
     c_bands:  1 eigenvalues not converged
     c_bands:  1 eigenvalues not converged
     c_bands:  1 eigenvalues not converged
     c_bands:  1 eigenvalues not converged
     c_bands:  1 eigenvalues not converged
     c_bands:  1 eigenvalues not converged
     c_bands:  1 eigenvalues not converged
     c_bands:  1 eigenvalues not converged
     c_bands:  1 eigenvalues not converged
     c_bands:  1 eigenvalues not converged
     c_bands:  1 eigenvalues not converged
     c_bands:  1 eigenvalues not converged
     c_bands:  1 eigenvalues not converged
     c_bands:  1 eigenvalues not converged
     c_bands:  1 eigenvalues not converged
     c_bands:  1 eigenvalues not converged
     c_bands:  1 eigenvalues not converged
     c_bands:  1 eigenvalues not converged
     c_bands:  1 eigenvalues not converged
     c_bands:  1 eigenvalues not converged
     c_bands:  1 eigenvalues not converged
     c_bands:  1 eigenvalues not converged
     c_bands:  1 eigenvalues not converged
     c_bands:  1 eigenvalues not converged
     c_bands:  1 eigenvalues not converged
     c_bands:  1 eigenvalues not converged
     c_bands:  1 eigenvalues not converged
     c_bands:  1 eigenvalues not converged
     c_bands:  1 eigenvalues not converged
     c_bands:  1 eigenvalues not converged
     c_bands:  1 eigenvalues not converged
     c_bands:  1 eigenvalues not converged
     c_bands:  1 eigenvalues not converged
     c_bands:  1 eigenvalues not converged
     c_bands:  1 eigenvalues not converged
     c_bands:  1 eigenvalues not converged
     c_bands:  1 eigenvalues not converged
     c_bands:  1 eigenvalues not converged
     c_bands:  1 eigenvalues not converged
     c_bands:  1 eigenvalues not converged
     c_bands:  1 eigenvalues not converged
     c_bands:  1 eigenvalues not converged
     c_bands:  1 eigenvalues not converged
     c_bands:  1 eigenvalues not converged
     c_bands:  1 eigenvalues not converged
     c_bands:  1 eigenvalues not converged
     c_bands:  1 eigenvalues not converged
     c_bands:  1 eigenvalues not converged
     c_bands:  1 eigenvalues not converged
     c_bands:  1 eigenvalues not converged
     c_bands:  1 eigenvalues not converged
     c_bands:  1 eigenvalues not converged
     c_bands:  1 eigenvalues not converged
     c_bands:  1 eigenvalues not converged
     c_bands:  1 eigenvalues not converged
     c_bands:  1 eigenvalues not converged
     c_bands:  1 eigenvalues not converged
     c_bands:  1 eigenvalues not converged
     c_bands:  1 eigenvalues not converged
     c_bands:  1 eigenvalues not converged
     c_bands:  1 eigenvalues not converged
     c_bands:  1 eigenvalues not converged
     c_bands:  1 eigenvalues not converged
     c_bands:  1 eigenvalues not converged
     c_bands:  1 eigenvalues not converged
     c_bands:  1 eigenvalues not converged
     c_bands:  1 eigenvalues not converged
     c_bands:  1 eigenvalues not converged
     c_bands:  1 eigenvalues not converged
     c_bands:  1 eigenvalues not converged
     c_bands:  1 eigenvalues not converged
     c_bands:  1 eigenvalues not converged
     c_bands:  1 eigenvalues not converged
     c_bands:  1 eigenvalues not converged
     c_bands:  1 eigenvalues not converged
     c_bands:  1 eigenvalues not converged
     c_bands:  1 eigenvalues not converged
     c_bands:  1 eigenvalues not converged
     c_bands:  1 eigenvalues not converged
     c_bands:  1 eigenvalues not converged
     c_bands:  1 eigenvalues not converged
     c_bands:  1 eigenvalues not converged
     c_bands:  1 eigenvalues not converged
     c_bands:  1 eigenvalues not converged
     c_bands:  1 eigenvalues not converged
     c_bands:  1 eigenvalues not converged
     c_bands:  1 eigenvalues not converged
     c_bands:  1 eigenvalues not converged
     c_bands:  1 eigenvalues not converged
     c_bands:  1 eigenvalues not converged
     c_bands:  1 eigenvalues not converged
     c_bands:  1 eigenvalues not converged
     c_bands:  1 eigenvalues not converged
     c_bands:  1 eigenvalues not converged
     c_bands:  1 eigenvalues not converged
     c_bands:  1 eigenvalues not converged
     c_bands:  1 eigenvalues not converged
     c_bands:  1 eigenvalues not converged
     c_bands:  1 eigenvalues not converged
     c_bands:  1 eigenvalues not converged
     c_bands:  1 eigenvalues not converged
     c_bands:  1 eigenvalues not converged
     c_bands:  1 eigenvalues not converged
     c_bands:  1 eigenvalues not converged
     c_bands:  1 eigenvalues not converged
     c_bands:  1 eigenvalues not converged
     c_bands:  1 eigenvalues not converged
     c_bands:  1 eigenvalues not converged
     c_bands:  1 eigenvalues not converged
     c_bands:  1 eigenvalues not converged
     c_bands:  1 eigenvalues not converged
     c_bands:  1 eigenvalues not converged
     c_bands:  1 eigenvalues not converged
     c_bands:  1 eigenvalues not converged
     c_bands:  1 eigenvalues not converged
     c_bands:  1 eigenvalues not converged
     c_bands:  1 eigenvalues not converged
     c_bands:  1 eigenvalues not converged
     c_bands:  1 eigenvalues not converged
     c_bands:  1 eigenvalues not converged
     c_bands:  1 eigenvalues not converged
     c_bands:  1 eigenvalues not converged
     c_bands:  1 eigenvalues not converged
     c_bands:  1 eigenvalues not converged
     c_bands:  1 eigenvalues not converged
     c_bands:  1 eigenvalues not converged
     c_bands:  1 eigenvalues not converged
     c_bands:  1 eigenvalues not converged
     c_bands:  1 eigenvalues not converged
     c_bands:  1 eigenvalues not converged
     c_bands:  1 eigenvalues not converged
     c_bands:  1 eigenvalues not converged
     c_bands:  1 eigenvalues not converged
     c_bands:  1 eigenvalues not converged
     c_bands:  1 eigenvalues not converged
     c_bands:  1 eigenvalues not converged
     c_bands:  1 eigenvalues not converged
     c_bands:  1 eigenvalues not converged
     c_bands:  1 eigenvalues not converged
     c_bands:  1 eigenvalues not converged
     c_bands:  1 eigenvalues not converged
     c_bands:  1 eigenvalues not converged
     c_bands:  1 eigenvalues not converged
     c_bands:  1 eigenvalues not converged
     c_bands:  1 eigenvalues not converged
     c_bands:  1 eigenvalues not converged
     c_bands:  1 eigenvalues not converged
     c_bands:  1 eigenvalues not converged
     c_bands:  1 eigenvalues not converged
     c_bands:  1 eigenvalues not converged
     c_bands:  1 eigenvalues not converged
     c_bands:  1 eigenvalues not converged
     c_bands:  1 eigenvalues not converged
     c_bands:  1 eigenvalues not converged
     c_bands:  1 eigenvalues not converged
     c_bands:  1 eigenvalues not converged
     c_bands:  1 eigenvalues not converged
     c_bands:  1 eigenvalues not converged
     c_bands:  1 eigenvalues not converged
     c_bands:  1 eigenvalues not converged
     c_bands:  1 eigenvalues not converged
     c_bands:  1 eigenvalues not converged
     c_bands:  1 eigenvalues not converged
     c_bands:  1 eigenvalues not converged
     c_bands:  1 eigenvalues not converged
     c_bands:  1 eigenvalues not converged
     c_bands:  1 eigenvalues not converged
     c_bands:  1 eigenvalues not converged
     c_bands:  1 eigenvalues not converged
     c_bands:  1 eigenvalues not converged
     c_bands:  1 eigenvalues not converged
     c_bands:  1 eigenvalues not converged
     c_bands:  1 eigenvalues not converged
     c_bands:  1 eigenvalues not converged
     c_bands:  1 eigenvalues not converged
     c_bands:  1 eigenvalues not converged
     c_bands:  1 eigenvalues not converged
     c_bands:  1 eigenvalues not converged
     c_bands:  1 eigenvalues not converged
     c_bands:  1 eigenvalues not converged
     c_bands:  1 eigenvalues not converged
     c_bands:  1 eigenvalues not converged
     c_bands:  1 eigenvalues not converged
     c_bands:  1 eigenvalues not converged
     c_bands:  1 eigenvalues not converged
     c_bands:  1 eigenvalues not converged
     c_bands:  1 eigenvalues not converged
     c_bands:  1 eigenvalues not converged
     c_bands:  1 eigenvalues not converged
     c_bands:  1 eigenvalues not converged
     c_bands:  1 eigenvalues not converged
     c_bands:  1 eigenvalues not converged
     c_bands:  1 eigenvalues not converged
     c_bands:  1 eigenvalues not converged
     c_bands:  1 eigenvalues not converged
     c_bands:  1 eigenvalues not converged
     c_bands:  1 eigenvalues not converged
     c_bands:  1 eigenvalues not converged
     c_bands:  1 eigenvalues not converged
     c_bands:  1 eigenvalues not converged
     c_bands:  1 eigenvalues not converged
     c_bands:  1 eigenvalues not converged
     c_bands:  1 eigenvalues not converged
     c_bands:  1 eigenvalues not converged
     c_bands:  1 eigenvalues not converged
     c_bands:  1 eigenvalues not converged
     c_bands:  1 eigenvalues not converged
     c_bands:  1 eigenvalues not converged
     c_bands:  1 eigenvalues not converged
     c_bands:  1 eigenvalues not converged
     c_bands:  1 eigenvalues not converged
     c_bands:  1 eigenvalues not converged
     c_bands:  1 eigenvalues not converged
     c_bands:  1 eigenvalues not converged
     c_bands:  1 eigenvalues not converged
     c_bands:  1 eigenvalues not converged
     c_bands:  1 eigenvalues not converged
     c_bands:  1 eigenvalues not converged
     c_bands:  1 eigenvalues not converged
     c_bands:  1 eigenvalues not converged
     c_bands:  1 eigenvalues not converged
     c_bands:  1 eigenvalues not converged
     c_bands:  1 eigenvalues not converged
     c_bands:  1 eigenvalues not converged
     c_bands:  1 eigenvalues not converged
     c_bands:  1 eigenvalues not converged
     c_bands:  1 eigenvalues not converged
     c_bands:  1 eigenvalues not converged
     c_bands:  1 eigenvalues not converged
     c_bands:  1 eigenvalues not converged
     c_bands:  1 eigenvalues not converged
     c_bands:  1 eigenvalues not converged
[...]
     c_bands:  1 eigenvalues not converged
     c_bands:  1 eigenvalues not converged
     c_bands:  1 eigenvalues not converged
     c_bands:  1 eigenvalues not converged
     c_bands:  1 eigenvalues not converged
     c_bands:  1 eigenvalues not converged
     c_bands:  1 eigenvalues not converged
     c_bands:  1 eigenvalues not converged
     c_bands:  1 eigenvalues not converged
     c_bands:  1 eigenvalues not converged
     c_bands:  1 eigenvalues not converged
     c_bands:  1 eigenvalues not converged
     c_bands:  1 eigenvalues not converged
     c_bands:  1 eigenvalues not converged

     ethr =  3.85E-11,  avg # of iterations = 74.8

     total cpu time spent up to now is    11452.7 secs

     End of band structure calculation

     Number of k-points >= 100: set verbosity='high' to print the bands.

     the Fermi energy is    12.0947 ev

     Writing config to output data dir ./_ph0/Th2H18.q_12/Th2H18.save/
 
     [dfpt_tetra]  Dos(E_F)[/Ry] :   0.1566517E+02

      Electron-phonon for Th2H18                                                

     bravais-lattice index     =            4
     lattice parameter (alat)  =       7.0655  a.u.
     unit-cell volume          =     455.5684 (a.u.)^3
     number of atoms/cell      =           20
     number of atomic types    =            2
     kinetic-energy cut-off    =      80.0000  Ry
     charge density cut-off    =     320.0000  Ry
     convergence threshold     =      1.0E-08
     beta                      =       0.7000
     number of iterations used =            4
     Exchange-correlation= PZ
                           (   1   1   0   0   0   0   0)


     celldm(1)=    7.06545  celldm(2)=    0.00000  celldm(3)=    1.49143
     celldm(4)=    0.00000  celldm(5)=    0.00000  celldm(6)=    0.00000

     crystal axes: (cart. coord. in units of alat)
               a(1) = (  1.0000  0.0000  0.0000 )  
               a(2) = ( -0.5000  0.8660  0.0000 )  
               a(3) = (  0.0000  0.0000  1.4914 )  

     reciprocal axes: (cart. coord. in units 2 pi/alat)
               b(1) = (  1.0000  0.5774  0.0000 )  
               b(2) = (  0.0000  1.1547  0.0000 )  
               b(3) = (  0.0000  0.0000  0.6705 )  


     Atoms inside the unit cell: 

     Cartesian axes

     site n.  atom      mass           positions (alat units)
        1     Th 232.0381   tau(    1) = (    0.50000    0.28868    1.11857  )
        2     Th 232.0381   tau(    2) = (    0.00000    0.57735    0.37286  )
        3     H    1.0079   tau(    3) = (    0.00000    0.00000    0.37286  )
        4     H    1.0079   tau(    4) = (    0.00000    0.00000    1.11857  )
        5     H    1.0079   tau(    5) = (    0.50000    0.28868    0.23230  )
        6     H    1.0079   tau(    6) = (    0.00000    0.57735    0.97801  )
        7     H    1.0079   tau(    7) = (   -0.00000    0.57735    1.25914  )
        8     H    1.0079   tau(    8) = (    0.50000    0.28868    0.51342  )
        9     H    1.0079   tau(    9) = (    0.50000    0.60686    0.09164  )
       10     H    1.0079   tau(   10) = (    0.22444    0.12958    0.09164  )
       11     H    1.0079   tau(   11) = (    0.77556    0.12958    0.09164  )
       12     H    1.0079   tau(   12) = (    0.00000    0.25916    0.83735  )
       13     H    1.0079   tau(   13) = (    0.27556    0.73644    0.83735  )
       14     H    1.0079   tau(   14) = (   -0.27556    0.73644    0.83735  )
       15     H    1.0079   tau(   15) = (    0.27556    0.73644    1.39980  )
       16     H    1.0079   tau(   16) = (   -0.00000    0.25916    1.39980  )
       17     H    1.0079   tau(   17) = (   -0.27556    0.73644    1.39980  )
       18     H    1.0079   tau(   18) = (    0.22444    0.12958    0.65408  )
       19     H    1.0079   tau(   19) = (    0.50000    0.60686    0.65408  )
       20     H    1.0079   tau(   20) = (    0.77556    0.12958    0.65408  )

     Computing dynamical matrix for 
                    q = (   0.3750000  -0.2165064   0.2514363 )
 
      2 Sym.Ops. (no q -> -q+G )


     G cutoff =  404.6412  (   2195 G-vectors)     FFT grid: ( 45, 45, 64)
     number of k points=  1872

     PseudoPot. # 1 for H  read from file:
     ./H.UPF
     MD5 check sum: df8e43189db5a2d7f03d0dd74d71ce72
     Pseudo is Norm-conserving, Zval =  1.0
     Generated in analytical, separable form
     Using radial grid of  929 points,  0 beta functions with: 

     PseudoPot. # 2 for Th read from file:
     ./Th.UPF
     MD5 check sum: a439cebac19eeec3fe133fa10c950477
     Pseudo is Norm-conserving + core correction, Zval =  4.0
     Generated using "atomic" code by A. Dal Corso  v.5.0.99 svn rev. 10869
     Using radial grid of 1289 points,  3 beta functions with: 
                l(1) =   1
                l(2) =   2
                l(3) =   3

     Mode symmetry, C_s (m)     point group:


     Atomic displacements:
     There are   60 irreducible representations

     Representation     1      1 modes -  To be done

     Representation     2      1 modes -  To be done

     Representation     3      1 modes -  To be done

     Representation     4      1 modes -  To be done

     Representation     5      1 modes -  To be done

     Representation     6      1 modes -  To be done

     Representation     7      1 modes -  To be done

     Representation     8      1 modes -  To be done

     Representation     9      1 modes -  To be done

     Representation    10      1 modes -  To be done

     Representation    11      1 modes -  To be done

     Representation    12      1 modes -  To be done

     Representation    13      1 modes -  To be done

     Representation    14      1 modes -  To be done

     Representation    15      1 modes -  To be done

     Representation    16      1 modes -  To be done

     Representation    17      1 modes -  To be done

     Representation    18      1 modes -  To be done

     Representation    19      1 modes -  To be done

     Representation    20      1 modes -  To be done

     Representation    21      1 modes -  To be done

     Representation    22      1 modes -  To be done

     Representation    23      1 modes -  To be done

     Representation    24      1 modes -  To be done

     Representation    25      1 modes -  To be done

     Representation    26      1 modes -  To be done

     Representation    27      1 modes -  To be done

     Representation    28      1 modes -  To be done

     Representation    29      1 modes -  To be done

     Representation    30      1 modes -  To be done

     Representation    31      1 modes -  To be done

     Representation    32      1 modes -  To be done

     Representation    33      1 modes -  To be done

     Representation    34      1 modes -  To be done

     Representation    35      1 modes -  To be done

     Representation    36      1 modes -  To be done

     Representation    37      1 modes -  To be done

     Representation    38      1 modes -  To be done

     Representation    39      1 modes -  To be done

     Representation    40      1 modes -  To be done

     Representation    41      1 modes -  To be done

     Representation    42      1 modes -  To be done

     Representation    43      1 modes -  To be done

     Representation    44      1 modes -  To be done

     Representation    45      1 modes -  To be done

     Representation    46      1 modes -  To be done

     Representation    47      1 modes -  To be done

     Representation    48      1 modes -  To be done

     Representation    49      1 modes -  To be done

     Representation    50      1 modes -  To be done

     Representation    51      1 modes -  To be done

     Representation    52      1 modes -  To be done

     Representation    53      1 modes -  To be done

     Representation    54      1 modes -  To be done

     Representation    55      1 modes -  To be done

     Representation    56      1 modes -  To be done

     Representation    57      1 modes -  To be done

     Representation    58      1 modes -  To be done

     Representation    59      1 modes -  To be done

     Representation    60      1 modes -  To be done


     PHONON       :      4h 2m CPU      4h19m WALL

     Reading dVscf from file dv
     Reading dynamics matrix from file Th2H18.dyn12

     Diagonalizing the dynamical matrix

     q = (    0.375000000  -0.216506351   0.251436340 ) 

 **************************************************************************
     freq (    1) =     -51.685776 [THz] =   -1724.051911 [cm-1]
     freq (    2) =     -41.233656 [THz] =   -1375.406731 [cm-1]
     freq (    3) =     -34.668842 [THz] =   -1156.428097 [cm-1]
     freq (    4) =     -25.885558 [THz] =    -863.449280 [cm-1]
     freq (    5) =     -25.089005 [THz] =    -836.879109 [cm-1]
     freq (    6) =     -22.322194 [THz] =    -744.588260 [cm-1]
     freq (    7) =     -21.819796 [THz] =    -727.830059 [cm-1]
     freq (    8) =     -10.213756 [THz] =    -340.694217 [cm-1]
     freq (    9) =      -9.276456 [THz] =    -309.429263 [cm-1]
     freq (   10) =       4.167265 [THz] =     139.004997 [cm-1]
     freq (   11) =       4.637442 [THz] =     154.688427 [cm-1]
     freq (   12) =       4.897153 [THz] =     163.351442 [cm-1]
     freq (   13) =       5.071256 [THz] =     169.158898 [cm-1]
     freq (   14) =       6.057442 [THz] =     202.054508 [cm-1]
     freq (   15) =       6.365229 [THz] =     212.321176 [cm-1]
     freq (   16) =      10.367114 [THz] =     345.809698 [cm-1]
     freq (   17) =      19.406150 [THz] =     647.319485 [cm-1]
     freq (   18) =      21.827983 [THz] =     728.103127 [cm-1]
     freq (   19) =      22.092078 [THz] =     736.912412 [cm-1]
     freq (   20) =      25.024166 [THz] =     834.716321 [cm-1]
     freq (   21) =      27.413852 [THz] =     914.427682 [cm-1]
     freq (   22) =      29.203998 [THz] =     974.140502 [cm-1]
     freq (   23) =      29.810668 [THz] =     994.376860 [cm-1]
     freq (   24) =      31.550958 [THz] =    1052.426689 [cm-1]
     freq (   25) =      33.068139 [THz] =    1103.034383 [cm-1]
     freq (   26) =      34.215516 [THz] =    1141.306766 [cm-1]
     freq (   27) =      34.418843 [THz] =    1148.089037 [cm-1]
     freq (   28) =      34.471989 [THz] =    1149.861798 [cm-1]
     freq (   29) =      35.377707 [THz] =    1180.073289 [cm-1]
     freq (   30) =      35.458465 [THz] =    1182.767067 [cm-1]
     freq (   31) =      36.005652 [THz] =    1201.019283 [cm-1]
     freq (   32) =      36.825289 [THz] =    1228.359424 [cm-1]
     freq (   33) =      37.511738 [THz] =    1251.256904 [cm-1]
     freq (   34) =      39.762823 [THz] =    1326.345012 [cm-1]
     freq (   35) =      40.316031 [THz] =    1344.798039 [cm-1]
     freq (   36) =      40.614309 [THz] =    1354.747527 [cm-1]
     freq (   37) =      41.371612 [THz] =    1380.008448 [cm-1]
     freq (   38) =      41.706848 [THz] =    1391.190693 [cm-1]
     freq (   39) =      41.830628 [THz] =    1395.319561 [cm-1]
     freq (   40) =      42.051431 [THz] =    1402.684750 [cm-1]
     freq (   41) =      42.894411 [THz] =    1430.803524 [cm-1]
     freq (   42) =      43.571864 [THz] =    1453.400943 [cm-1]
     freq (   43) =      44.893759 [THz] =    1497.494609 [cm-1]
     freq (   44) =      45.511199 [THz] =    1518.090207 [cm-1]
     freq (   45) =      45.828655 [THz] =    1528.679370 [cm-1]
     freq (   46) =      47.078090 [THz] =    1570.356043 [cm-1]
     freq (   47) =      47.395316 [THz] =    1580.937565 [cm-1]
     freq (   48) =      47.496637 [THz] =    1584.317282 [cm-1]
     freq (   49) =      47.530739 [THz] =    1585.454804 [cm-1]
     freq (   50) =      48.173582 [THz] =    1606.897728 [cm-1]
     freq (   51) =      48.348787 [THz] =    1612.741947 [cm-1]
     freq (   52) =      49.055157 [THz] =    1636.303901 [cm-1]
     freq (   53) =      49.864491 [THz] =    1663.300376 [cm-1]
     freq (   54) =      50.811563 [THz] =    1694.891301 [cm-1]
     freq (   55) =      51.073406 [THz] =    1703.625453 [cm-1]
     freq (   56) =      53.094534 [THz] =    1771.043015 [cm-1]
     freq (   57) =      53.808272 [THz] =    1794.850763 [cm-1]
     freq (   58) =      62.254059 [THz] =    2076.571877 [cm-1]
     freq (   59) =      80.347103 [THz] =    2680.090860 [cm-1]
     freq (   60) =      92.564229 [THz] =    3087.610325 [cm-1]
 **************************************************************************

     [elph_tetra]   Lowest band which contains FS :         12
     [elph_tetra]  Highest band which contains FS :         15
     [elph_tetra]    # of bands which contains FS :          4
 
     Tetrahedron method
     DOS =  7.832584 states/spin/Ry/Unit Cell at Ef= 12.094668 eV
     double delta at Ef =129.811843
     lambda(    1)=  0.0000   gamma=    0.00 GHz
     lambda(    2)=  0.0000   gamma=    0.00 GHz
     lambda(    3)=  0.0000   gamma=    0.00 GHz
     lambda(    4)=  0.0000   gamma=    0.00 GHz
     lambda(    5)=  0.0000   gamma=    0.00 GHz
     lambda(    6)=  0.0000   gamma=    0.00 GHz
     lambda(    7)=  0.0000   gamma=    0.00 GHz
     lambda(    8)=  0.0000   gamma=    0.00 GHz
     lambda(    9)=  0.0000   gamma=    0.00 GHz
     lambda(   10)=  0.0422   gamma=    5.48 GHz
     lambda(   11)=  0.1477   gamma=   23.76 GHz
     lambda(   12)=  0.0098   gamma=    1.77 GHz
     lambda(   13)=  0.0120   gamma=    2.31 GHz
     lambda(   14)=  0.0201   gamma=    5.51 GHz
     lambda(   15)=  0.0159   gamma=    4.81 GHz
     lambda(   16)=  0.2482   gamma=  199.54 GHz
     lambda(   17)=  0.1017   gamma=  286.45 GHz
     lambda(   18)=  0.0227   gamma=   81.03 GHz
     lambda(   19)=  0.0901   gamma=  328.77 GHz
     lambda(   20)=  0.0346   gamma=  162.27 GHz
     lambda(   21)=  0.0702   gamma=  394.82 GHz
     lambda(   22)=  0.0329   gamma=  209.91 GHz
     lambda(   23)=  0.0528   gamma=  351.26 GHz
     lambda(   24)=  0.0435   gamma=  323.83 GHz
     lambda(   25)=  0.0385   gamma=  314.95 GHz
     lambda(   26)=  0.0092   gamma=   80.44 GHz
     lambda(   27)=  0.0158   gamma=  140.27 GHz
     lambda(   28)=  0.0072   gamma=   63.67 GHz
     lambda(   29)=  0.0296   gamma=  277.21 GHz
     lambda(   30)=  0.0067   gamma=   63.01 GHz
     lambda(   31)=  0.0164   gamma=  158.61 GHz
     lambda(   32)=  0.0052   gamma=   53.00 GHz
     lambda(   33)=  0.0079   gamma=   83.54 GHz
     lambda(   34)=  0.0100   gamma=  118.06 GHz
     lambda(   35)=  0.0098   gamma=  119.51 GHz
     lambda(   36)=  0.0192   gamma=  237.03 GHz
     lambda(   37)=  0.0033   gamma=   42.52 GHz
     lambda(   38)=  0.0134   gamma=  174.65 GHz
     lambda(   39)=  0.0085   gamma=  111.16 GHz
     lambda(   40)=  0.0124   gamma=  163.76 GHz
     lambda(   41)=  0.0152   gamma=  209.30 GHz
     lambda(   42)=  0.0084   gamma=  119.45 GHz
     lambda(   43)=  0.0057   gamma=   85.21 GHz
     lambda(   44)=  0.0063   gamma=   97.21 GHz
     lambda(   45)=  0.0107   gamma=  168.00 GHz
     lambda(   46)=  0.0063   gamma=  103.62 GHz
     lambda(   47)=  0.0039   gamma=   65.72 GHz
     lambda(   48)=  0.0053   gamma=   89.44 GHz
     lambda(   49)=  0.0057   gamma=   96.28 GHz
     lambda(   50)=  0.0107   gamma=  185.94 GHz
     lambda(   51)=  0.0042   gamma=   73.35 GHz
     lambda(   52)=  0.0097   gamma=  175.26 GHz
     lambda(   53)=  0.0058   gamma=  107.30 GHz
     lambda(   54)=  0.0030   gamma=   58.51 GHz
     lambda(   55)=  0.0066   gamma=  128.48 GHz
     lambda(   56)=  0.0057   gamma=  119.45 GHz
     lambda(   57)=  0.0062   gamma=  133.66 GHz
     lambda(   58)=  0.0034   gamma=   97.58 GHz
     lambda(   59)=  0.0019   gamma=   93.66 GHz
     lambda(   60)=  0.0035   gamma=  222.64 GHz
 
     Number of q in the star =   12
     List of q in the star:
          1   0.375000000  -0.216506351   0.251436340
          2  -0.375000000  -0.216506351  -0.251436340
          3   0.375000000   0.216506351  -0.251436340
          4   0.375000000   0.216506351   0.251436340
          5   0.000000000  -0.433012702   0.251436340
          6   0.000000000   0.433012702   0.251436340
          7  -0.375000000  -0.216506351   0.251436340
          8   0.375000000  -0.216506351  -0.251436340
          9   0.000000000   0.433012702  -0.251436340
         10   0.000000000  -0.433012702  -0.251436340
         11  -0.375000000   0.216506351  -0.251436340
         12  -0.375000000   0.216506351   0.251436340
 
     init_run     :      1.17s CPU      2.44s WALL (      12 calls)
     electrons    :  10595.74s CPU  11446.35s WALL (      12 calls)

     Called by init_run:
     wfcinit      :      0.00s CPU      0.07s WALL (      12 calls)
     potinit      :      0.03s CPU      1.20s WALL (      12 calls)
     hinit0       :      0.35s CPU      0.35s WALL (      12 calls)

     Called by electrons:
     c_bands      :  10583.07s CPU  11433.62s WALL (      12 calls)
     v_of_rho     :      0.02s CPU      0.02s WALL (      13 calls)

     Called by c_bands:
     init_us_2    :    124.66s CPU    129.60s WALL (  903456 calls)
     init_us_2:cp :    122.34s CPU    127.61s WALL (  903456 calls)
     cegterg      :   5567.15s CPU   5704.04s WALL (  120784 calls)

     Called by *egterg:
     cdiaghg      :   1909.50s CPU   1948.02s WALL ( 2204436 calls)
     h_psi        :   3579.20s CPU   3678.34s WALL ( 2325220 calls)
     g_psi        :     16.95s CPU     17.32s WALL ( 2175636 calls)

     Called by h_psi:
     h_psi:calbec :    135.53s CPU    139.56s WALL ( 2325220 calls)
     vloc_psi     :   3358.42s CPU   3451.20s WALL ( 2325220 calls)
     add_vuspsi   :     54.44s CPU     56.40s WALL ( 2325220 calls)

     General routines
     calbec       :    132.91s CPU    137.73s WALL ( 2382820 calls)
     fft          :      0.02s CPU      0.07s WALL (      52 calls)
     ffts         :    119.91s CPU    132.89s WALL (  864000 calls)
     fftw         :   6160.20s CPU   6379.81s WALL (69395350 calls)
     davcio       :     59.92s CPU    755.22s WALL ( 1778965 calls)
 
     Parallel routines
 
     PHONON       :      4h 6m CPU      4h24m WALL

     INITIALIZATION: 
     phq_setup    :      1.57s CPU      9.40s WALL (      12 calls)
     phq_init     :      6.95s CPU      7.98s WALL (      12 calls)
 
     phq_init     :      6.95s CPU      7.98s WALL (      12 calls)
     set_drhoc    :      0.45s CPU      0.45s WALL (      12 calls)
     init_vloc    :      0.14s CPU      0.14s WALL (      13 calls)
     init_us_1    :      0.08s CPU      0.08s WALL (      13 calls)
     init_us_2    :    124.66s CPU    129.60s WALL (  903456 calls)
 
 
 
 
     dvqpsi_us    :   3189.65s CPU   3343.40s WALL (  864000 calls)
     apply_dpot_b :    723.71s CPU    745.87s WALL (  864000 calls)
     vpsifft      :    736.55s CPU    759.27s WALL (  864000 calls)
 
     dvqpsi_us    :   3189.65s CPU   3343.40s WALL (  864000 calls)
     dvqpsi_us_on :    216.08s CPU    222.42s WALL (  864000 calls)
 
 
     h_psi        :   3579.20s CPU   3678.34s WALL ( 2325220 calls)
 
     h_psi        :   3579.20s CPU   3678.34s WALL ( 2325220 calls)
     add_vuspsi   :     54.44s CPU     56.40s WALL ( 2325220 calls)
 
 
 
      Electron-phonon coupling
     elphon       :   4142.51s CPU   4336.18s WALL (      12 calls)
     elphel       :   4141.72s CPU   4330.52s WALL (     716 calls)
 
      General routines
     calbec       :    132.91s CPU    137.73s WALL ( 2382820 calls)
     fft          :      0.02s CPU      0.07s WALL (      52 calls)
     ffts         :    119.91s CPU    132.89s WALL (  864000 calls)
     fftw         :   6160.20s CPU   6379.81s WALL (69395350 calls)
     davcio       :     59.92s CPU    755.22s WALL ( 1778965 calls)
 
 
     PHONON       :      4h 6m CPU      4h24m WALL

 
   This run was terminated on:  16:45:50  28May2022            

=------------------------------------------------------------------------------=
   JOB DONE.
=------------------------------------------------------------------------------=
