
     Program PHONON v.7.0 starts on 26May2022 at  0:48:45 

     This program is part of the open-source Quantum ESPRESSO suite
     for quantum simulation of materials; please cite
         "P. Giannozzi et al., J. Phys.:Condens. Matter 21 395502 (2009);
         "P. Giannozzi et al., J. Phys.:Condens. Matter 29 465901 (2017);
         "P. Giannozzi et al., J. Chem. Phys. 152 154105 (2020);
          URL http://www.quantum-espresso.org", 
     in publications or presentations arising from this work. More details at
     http://www.quantum-espresso.org/quote

     Parallel version (MPI), running on    20 processors

     MPI processes distributed on     1 nodes
     R & G space division:  proc/nbgrp/npool/nimage =      20
     276634 MiB available memory on the printing compute node when the environment starts
 
     Reading input from /home/mgrebenyuk/QE/Examples/ThH9/100GPa/4x4x4/ph.in

     Reading xml data from directory:

     ./Th2H18.save/

     IMPORTANT: XC functional enforced from input :
     Exchange-correlation= PZ
                           (   1   1   0   0   0   0   0)
     Any further DFT definition will be discarded
     Please, verify this is what you really want

 
     Parallelization info
     --------------------
     sticks:   dense  smooth     PW     G-vecs:    dense   smooth      PW
     Min          57      57     16                 2405     2405     368
     Max          58      58     18                 2414     2414     371
     Sum        1159    1159    337                48237    48237    7389
 
     Using Slab Decomposition
 
     Reading collected, re-writing distributed wavefunctions


     Dynamical matrices for ( 4, 4, 4)  uniform grid of q-points
     With a half shift
     (  12 q-points):
       N         xq(1)         xq(2)         xq(3) 
       1   0.125000000   0.216506351   0.083180554
       2   0.125000000   0.216506351   0.249541662
       3   0.125000000   0.505181486   0.083180554
       4   0.125000000   0.505181486   0.249541662
       5   0.125000000  -0.360843918   0.083180554
       6   0.125000000  -0.360843918   0.249541662
       7   0.125000000  -0.072168784   0.083180554
       8   0.125000000  -0.072168784   0.249541662
       9   0.375000000   0.649519053   0.083180554
      10   0.375000000   0.649519053   0.249541662
      11   0.375000000  -0.216506351   0.083180554
      12   0.375000000  -0.216506351   0.249541662
     Because shifted q grid is used, q2r will not work !

     Saving dvscf to file. Distribute only q points, not irreducible represetations.

     Calculation of q =    0.1250000   0.2165064   0.0831806

     Subspace diagonalization in iterative solution of the eigenvalue problem:
     a serial algorithm will be used

     [opt_tetra]  Optimized tetrahedron method is used.
 
     Parallelization info
     --------------------
     sticks:   dense  smooth     PW     G-vecs:    dense   smooth      PW
     Min          57      57     17                 2405     2405     395
     Max          58      58     18                 2414     2414     402
     Sum        1159    1159    349                48237    48237    7943
 
     Using Slab Decomposition
 

     Title: 
     Electron-phonon coefficients for Th2H18                                    


     bravais-lattice index     =            4
     lattice parameter (alat)  =       7.2656  a.u.
     unit-cell volume          =     499.1617 (a.u.)^3
     number of atoms/cell      =           20
     number of atomic types    =            2
     number of electrons       =        26.00
     number of Kohn-Sham states=           17
     kinetic-energy cutoff     =      80.0000  Ry
     charge density cutoff     =     320.0000  Ry
     Exchange-correlation= PZ
                           (   1   1   0   0   0   0   0)

     celldm(1)=   7.265644  celldm(2)=   0.000000  celldm(3)=   1.502755
     celldm(4)=   0.000000  celldm(5)=   0.000000  celldm(6)=   0.000000

     crystal axes: (cart. coord. in units of alat)
               a(1) = (   1.000000   0.000000   0.000000 )  
               a(2) = (  -0.500000   0.866025   0.000000 )  
               a(3) = (   0.000000   0.000000   1.502755 )  

     reciprocal axes: (cart. coord. in units 2 pi/alat)
               b(1) = (  1.000000  0.577350  0.000000 )  
               b(2) = (  0.000000  1.154701  0.000000 )  
               b(3) = (  0.000000  0.000000  0.665444 )  


     PseudoPot. # 1 for H  read from file:
     ./H.UPF
     MD5 check sum: df8e43189db5a2d7f03d0dd74d71ce72
     Pseudo is Norm-conserving, Zval =  1.0
     Generated in analytical, separable form
     Using radial grid of  929 points,  0 beta functions with: 

     PseudoPot. # 2 for Th read from file:
     ./Th.UPF
     MD5 check sum: a439cebac19eeec3fe133fa10c950477
     Pseudo is Norm-conserving + core correction, Zval =  4.0
     Generated using "atomic" code by A. Dal Corso  v.5.0.99 svn rev. 10869
     Using radial grid of 1289 points,  3 beta functions with: 
                l(1) =   1
                l(2) =   2
                l(3) =   3

     atomic species   valence    mass     pseudopotential
        H              1.00     1.00794     H ( 1.00)
        Th             4.00   232.03806     Th( 1.00)

     24 Sym. Ops., with inversion, found



   Cartesian axes

     site n.     atom                  positions (alat units)
         1           Th  tau(   1) = (   0.5000000   0.2886751   1.1270663  )
         2           Th  tau(   2) = (   0.0000000   0.5773503   0.3756888  )
         3           H   tau(   3) = (   0.0000000   0.0000000   0.3756888  )
         4           H   tau(   4) = (   0.0000000   0.0000000   1.1270663  )
         5           H   tau(   5) = (   0.5000000   0.2886751   0.2365190  )
         6           H   tau(   6) = (   0.0000000   0.5773503   0.9878965  )
         7           H   tau(   7) = (  -0.0000000   0.5773503   1.2662361  )
         8           H   tau(   8) = (   0.5000000   0.2886751   0.5148586  )
         9           H   tau(   9) = (   0.5000000   0.6036057   0.0891906  )
        10           H   tau(  10) = (   0.2272622   0.1312099   0.0891906  )
        11           H   tau(  11) = (   0.7727378   0.1312099   0.0891906  )
        12           H   tau(  12) = (   0.0000000   0.2624197   0.8405681  )
        13           H   tau(  13) = (   0.2727378   0.7348155   0.8405681  )
        14           H   tau(  14) = (  -0.2727378   0.7348155   0.8405681  )
        15           H   tau(  15) = (   0.2727378   0.7348155   1.4135645  )
        16           H   tau(  16) = (   0.0000000   0.2624197   1.4135645  )
        17           H   tau(  17) = (  -0.2727378   0.7348155   1.4135645  )
        18           H   tau(  18) = (   0.2272622   0.1312099   0.6621869  )
        19           H   tau(  19) = (   0.5000000   0.6036057   0.6621869  )
        20           H   tau(  20) = (   0.7727378   0.1312099   0.6621869  )

     number of k points=  1872 (tetrahedron method)

     Number of k-points >= 100: set verbosity='high' to print them.

     Dense  grid:    48237 G-vectors     FFT dimensions: (  45,  45,  64)

     Estimated max dynamical RAM per process >       3.18 MB

     Estimated total dynamical RAM >      63.69 MB

     The potential is recalculated from file :
     ./_ph0/Th2H18.q_1/Th2H18.save/charge-density

     Starting wfcs are   50 atomic wfcs

     Band Structure Calculation
     Davidson diagonalization with overlap
     c_bands:  1 eigenvalues not converged
     c_bands:  1 eigenvalues not converged
     c_bands:  1 eigenvalues not converged
     c_bands:  1 eigenvalues not converged
     c_bands:  1 eigenvalues not converged
     c_bands:  1 eigenvalues not converged
     c_bands:  1 eigenvalues not converged
     c_bands:  1 eigenvalues not converged
     c_bands:  1 eigenvalues not converged
     c_bands:  1 eigenvalues not converged
     c_bands:  1 eigenvalues not converged
     c_bands:  1 eigenvalues not converged
     c_bands:  1 eigenvalues not converged
     c_bands:  1 eigenvalues not converged
     c_bands:  1 eigenvalues not converged
     c_bands:  1 eigenvalues not converged
     c_bands:  1 eigenvalues not converged
     c_bands:  1 eigenvalues not converged
     c_bands:  1 eigenvalues not converged
     c_bands:  1 eigenvalues not converged
     c_bands:  1 eigenvalues not converged
     c_bands:  2 eigenvalues not converged
     c_bands:  1 eigenvalues not converged
     c_bands:  2 eigenvalues not converged
     c_bands:  1 eigenvalues not converged
     c_bands:  1 eigenvalues not converged
     c_bands:  1 eigenvalues not converged
     c_bands:  1 eigenvalues not converged
     c_bands:  1 eigenvalues not converged
     c_bands:  1 eigenvalues not converged
     c_bands:  1 eigenvalues not converged
     c_bands:  1 eigenvalues not converged
     c_bands:  1 eigenvalues not converged
     c_bands:  1 eigenvalues not converged
     c_bands:  1 eigenvalues not converged
     c_bands:  1 eigenvalues not converged
     c_bands:  1 eigenvalues not converged
     c_bands:  1 eigenvalues not converged
     c_bands:  1 eigenvalues not converged
     c_bands:  1 eigenvalues not converged
     c_bands:  1 eigenvalues not converged
     c_bands:  1 eigenvalues not converged
     c_bands:  1 eigenvalues not converged
     c_bands:  1 eigenvalues not converged
     c_bands:  1 eigenvalues not converged
     c_bands:  1 eigenvalues not converged
     c_bands:  1 eigenvalues not converged
     c_bands:  1 eigenvalues not converged
     c_bands:  2 eigenvalues not converged
     c_bands:  1 eigenvalues not converged
     c_bands:  2 eigenvalues not converged
     c_bands:  1 eigenvalues not converged
     c_bands:  1 eigenvalues not converged
     c_bands:  1 eigenvalues not converged
     c_bands:  1 eigenvalues not converged
     c_bands:  1 eigenvalues not converged
     c_bands:  1 eigenvalues not converged
     c_bands:  1 eigenvalues not converged
     c_bands:  1 eigenvalues not converged
     c_bands:  1 eigenvalues not converged
     c_bands:  1 eigenvalues not converged
     c_bands:  1 eigenvalues not converged
     c_bands:  1 eigenvalues not converged
     c_bands:  1 eigenvalues not converged
     c_bands:  1 eigenvalues not converged
     c_bands:  1 eigenvalues not converged
     c_bands:  1 eigenvalues not converged
     c_bands:  1 eigenvalues not converged
     c_bands:  1 eigenvalues not converged
     c_bands:  1 eigenvalues not converged
     c_bands:  1 eigenvalues not converged
     c_bands:  1 eigenvalues not converged
     c_bands:  1 eigenvalues not converged
     c_bands:  1 eigenvalues not converged
     c_bands:  1 eigenvalues not converged
     c_bands:  1 eigenvalues not converged
     c_bands:  1 eigenvalues not converged
     c_bands:  1 eigenvalues not converged
     c_bands:  1 eigenvalues not converged
     c_bands:  1 eigenvalues not converged
     c_bands:  1 eigenvalues not converged
     c_bands:  1 eigenvalues not converged
     c_bands:  1 eigenvalues not converged
     c_bands:  1 eigenvalues not converged
     c_bands:  1 eigenvalues not converged
     c_bands:  1 eigenvalues not converged
     c_bands:  1 eigenvalues not converged
     c_bands:  1 eigenvalues not converged
     c_bands:  1 eigenvalues not converged
     c_bands:  1 eigenvalues not converged
     c_bands:  1 eigenvalues not converged
     c_bands:  1 eigenvalues not converged
     c_bands:  1 eigenvalues not converged
     c_bands:  1 eigenvalues not converged
     c_bands:  1 eigenvalues not converged
     c_bands:  1 eigenvalues not converged
     c_bands:  1 eigenvalues not converged
     c_bands:  1 eigenvalues not converged
     c_bands:  1 eigenvalues not converged
     c_bands:  1 eigenvalues not converged
     c_bands:  1 eigenvalues not converged
     c_bands:  1 eigenvalues not converged
     c_bands:  1 eigenvalues not converged
     c_bands:  1 eigenvalues not converged
     c_bands:  1 eigenvalues not converged
     c_bands:  1 eigenvalues not converged
     c_bands:  1 eigenvalues not converged
     c_bands:  1 eigenvalues not converged
     c_bands:  1 eigenvalues not converged
     c_bands:  1 eigenvalues not converged
     c_bands:  1 eigenvalues not converged
     c_bands:  1 eigenvalues not converged
     c_bands:  1 eigenvalues not converged
     c_bands:  1 eigenvalues not converged
     c_bands:  1 eigenvalues not converged
     c_bands:  1 eigenvalues not converged
     c_bands:  1 eigenvalues not converged
     c_bands:  1 eigenvalues not converged
     c_bands:  1 eigenvalues not converged
     c_bands:  1 eigenvalues not converged
     c_bands:  1 eigenvalues not converged
     c_bands:  1 eigenvalues not converged
     c_bands:  1 eigenvalues not converged
     c_bands:  1 eigenvalues not converged
     c_bands:  1 eigenvalues not converged
     c_bands:  1 eigenvalues not converged
     c_bands:  1 eigenvalues not converged
     c_bands:  1 eigenvalues not converged
     c_bands:  1 eigenvalues not converged
     c_bands:  1 eigenvalues not converged
     c_bands:  1 eigenvalues not converged
     c_bands:  1 eigenvalues not converged
     c_bands:  1 eigenvalues not converged
     c_bands:  1 eigenvalues not converged
     c_bands:  1 eigenvalues not converged
     c_bands:  1 eigenvalues not converged
     c_bands:  1 eigenvalues not converged
     c_bands:  1 eigenvalues not converged
     c_bands:  1 eigenvalues not converged
     c_bands:  1 eigenvalues not converged
     c_bands:  1 eigenvalues not converged
     c_bands:  1 eigenvalues not converged
     c_bands:  1 eigenvalues not converged
     c_bands:  1 eigenvalues not converged
     c_bands:  1 eigenvalues not converged
     c_bands:  1 eigenvalues not converged
     c_bands:  1 eigenvalues not converged
     c_bands:  1 eigenvalues not converged
     c_bands:  1 eigenvalues not converged
     c_bands:  1 eigenvalues not converged
     c_bands:  1 eigenvalues not converged
     c_bands:  1 eigenvalues not converged
     c_bands:  1 eigenvalues not converged
     c_bands:  1 eigenvalues not converged
     c_bands:  1 eigenvalues not converged
     c_bands:  1 eigenvalues not converged
     c_bands:  1 eigenvalues not converged
     c_bands:  1 eigenvalues not converged
     c_bands:  1 eigenvalues not converged
     c_bands:  1 eigenvalues not converged
     c_bands:  1 eigenvalues not converged
     c_bands:  1 eigenvalues not converged
     c_bands:  1 eigenvalues not converged
     c_bands:  1 eigenvalues not converged
     c_bands:  1 eigenvalues not converged
     c_bands:  1 eigenvalues not converged
     c_bands:  1 eigenvalues not converged
     c_bands:  1 eigenvalues not converged
     c_bands:  1 eigenvalues not converged
     c_bands:  1 eigenvalues not converged
     c_bands:  1 eigenvalues not converged
     c_bands:  1 eigenvalues not converged
     c_bands:  1 eigenvalues not converged
     c_bands:  1 eigenvalues not converged
     c_bands:  1 eigenvalues not converged
     c_bands:  1 eigenvalues not converged
     c_bands:  1 eigenvalues not converged
     c_bands:  1 eigenvalues not converged
     c_bands:  1 eigenvalues not converged
     c_bands:  1 eigenvalues not converged
     c_bands:  1 eigenvalues not converged
     c_bands:  1 eigenvalues not converged
     c_bands:  1 eigenvalues not converged
     c_bands:  1 eigenvalues not converged
     c_bands:  1 eigenvalues not converged
     c_bands:  1 eigenvalues not converged
     c_bands:  1 eigenvalues not converged
     c_bands:  1 eigenvalues not converged
     c_bands:  1 eigenvalues not converged
     c_bands:  1 eigenvalues not converged
     c_bands:  1 eigenvalues not converged
     c_bands:  1 eigenvalues not converged
     c_bands:  1 eigenvalues not converged
     c_bands:  1 eigenvalues not converged
     c_bands:  1 eigenvalues not converged
     c_bands:  1 eigenvalues not converged
     c_bands:  1 eigenvalues not converged
     c_bands:  1 eigenvalues not converged
     c_bands:  1 eigenvalues not converged
     c_bands:  1 eigenvalues not converged
     c_bands:  1 eigenvalues not converged
     c_bands:  1 eigenvalues not converged
     c_bands:  1 eigenvalues not converged
     c_bands:  1 eigenvalues not converged
     c_bands:  1 eigenvalues not converged
     c_bands:  1 eigenvalues not converged
     c_bands:  1 eigenvalues not converged
     c_bands:  1 eigenvalues not converged
     c_bands:  1 eigenvalues not converged
     c_bands:  1 eigenvalues not converged
     c_bands:  1 eigenvalues not converged
     c_bands:  1 eigenvalues not converged
     c_bands:  1 eigenvalues not converged
     c_bands:  1 eigenvalues not converged
     c_bands:  1 eigenvalues not converged
     c_bands:  1 eigenvalues not converged
     c_bands:  1 eigenvalues not converged
     c_bands:  1 eigenvalues not converged
     c_bands:  1 eigenvalues not converged
     c_bands:  1 eigenvalues not converged
     c_bands:  1 eigenvalues not converged
     c_bands:  1 eigenvalues not converged
     c_bands:  1 eigenvalues not converged
     c_bands:  1 eigenvalues not converged
     c_bands:  1 eigenvalues not converged
     c_bands:  1 eigenvalues not converged
     c_bands:  1 eigenvalues not converged
     c_bands:  1 eigenvalues not converged
     c_bands:  1 eigenvalues not converged
     c_bands:  1 eigenvalues not converged
     c_bands:  1 eigenvalues not converged
     c_bands:  1 eigenvalues not converged
     c_bands:  1 eigenvalues not converged
     c_bands:  1 eigenvalues not converged
     c_bands:  1 eigenvalues not converged
     c_bands:  1 eigenvalues not converged
     c_bands:  1 eigenvalues not converged
     c_bands:  1 eigenvalues not converged
     c_bands:  1 eigenvalues not converged
     c_bands:  1 eigenvalues not converged
     c_bands:  1 eigenvalues not converged
     c_bands:  1 eigenvalues not converged
     c_bands:  1 eigenvalues not converged
     c_bands:  1 eigenvalues not converged
     c_bands:  1 eigenvalues not converged
     c_bands:  1 eigenvalues not converged
     c_bands:  1 eigenvalues not converged
     c_bands:  1 eigenvalues not converged
     c_bands:  1 eigenvalues not converged
     c_bands:  1 eigenvalues not converged
     c_bands:  1 eigenvalues not converged
     c_bands:  1 eigenvalues not converged

     ethr =  3.85E-11,  avg # of iterations = 81.2

     total cpu time spent up to now is      428.5 secs

     End of band structure calculation

     Number of k-points >= 100: set verbosity='high' to print the bands.

     the Fermi energy is    10.9313 ev

     Writing config to output data dir ./_ph0/Th2H18.q_1/Th2H18.save/
 
     [dfpt_tetra]  Dos(E_F)[/Ry] :   0.1636004E+02

     Electron-phonon coefficients for Th2H18                                    

     bravais-lattice index     =            4
     lattice parameter (alat)  =       7.2656  a.u.
     unit-cell volume          =     499.1617 (a.u.)^3
     number of atoms/cell      =           20
     number of atomic types    =            2
     kinetic-energy cut-off    =      80.0000  Ry
     charge density cut-off    =     320.0000  Ry
     convergence threshold     =      1.0E-08
     beta                      =       0.7000
     number of iterations used =            4
     Exchange-correlation= PZ
                           (   1   1   0   0   0   0   0)


     celldm(1)=    7.26564  celldm(2)=    0.00000  celldm(3)=    1.50276
     celldm(4)=    0.00000  celldm(5)=    0.00000  celldm(6)=    0.00000

     crystal axes: (cart. coord. in units of alat)
               a(1) = (  1.0000  0.0000  0.0000 )  
               a(2) = ( -0.5000  0.8660  0.0000 )  
               a(3) = (  0.0000  0.0000  1.5028 )  

     reciprocal axes: (cart. coord. in units 2 pi/alat)
               b(1) = (  1.0000  0.5774  0.0000 )  
               b(2) = (  0.0000  1.1547  0.0000 )  
               b(3) = (  0.0000  0.0000  0.6654 )  


     Atoms inside the unit cell: 

     Cartesian axes

     site n.  atom      mass           positions (alat units)
        1     Th 232.0381   tau(    1) = (    0.50000    0.28868    1.12707  )
        2     Th 232.0381   tau(    2) = (    0.00000    0.57735    0.37569  )
        3     H    1.0079   tau(    3) = (    0.00000    0.00000    0.37569  )
        4     H    1.0079   tau(    4) = (    0.00000    0.00000    1.12707  )
        5     H    1.0079   tau(    5) = (    0.50000    0.28868    0.23652  )
        6     H    1.0079   tau(    6) = (    0.00000    0.57735    0.98790  )
        7     H    1.0079   tau(    7) = (   -0.00000    0.57735    1.26624  )
        8     H    1.0079   tau(    8) = (    0.50000    0.28868    0.51486  )
        9     H    1.0079   tau(    9) = (    0.50000    0.60361    0.08919  )
       10     H    1.0079   tau(   10) = (    0.22726    0.13121    0.08919  )
       11     H    1.0079   tau(   11) = (    0.77274    0.13121    0.08919  )
       12     H    1.0079   tau(   12) = (    0.00000    0.26242    0.84057  )
       13     H    1.0079   tau(   13) = (    0.27274    0.73482    0.84057  )
       14     H    1.0079   tau(   14) = (   -0.27274    0.73482    0.84057  )
       15     H    1.0079   tau(   15) = (    0.27274    0.73482    1.41356  )
       16     H    1.0079   tau(   16) = (    0.00000    0.26242    1.41356  )
       17     H    1.0079   tau(   17) = (   -0.27274    0.73482    1.41356  )
       18     H    1.0079   tau(   18) = (    0.22726    0.13121    0.66219  )
       19     H    1.0079   tau(   19) = (    0.50000    0.60361    0.66219  )
       20     H    1.0079   tau(   20) = (    0.77274    0.13121    0.66219  )

     Computing dynamical matrix for 
                    q = (   0.1250000   0.2165064   0.0831806 )
 
      2 Sym.Ops. (no q -> -q+G )


     G cutoff =  427.8963  (   2414 G-vectors)     FFT grid: ( 45, 45, 64)
     number of k points=  1872

     PseudoPot. # 1 for H  read from file:
     ./H.UPF
     MD5 check sum: df8e43189db5a2d7f03d0dd74d71ce72
     Pseudo is Norm-conserving, Zval =  1.0
     Generated in analytical, separable form
     Using radial grid of  929 points,  0 beta functions with: 

     PseudoPot. # 2 for Th read from file:
     ./Th.UPF
     MD5 check sum: a439cebac19eeec3fe133fa10c950477
     Pseudo is Norm-conserving + core correction, Zval =  4.0
     Generated using "atomic" code by A. Dal Corso  v.5.0.99 svn rev. 10869
     Using radial grid of 1289 points,  3 beta functions with: 
                l(1) =   1
                l(2) =   2
                l(3) =   3

     Mode symmetry, C_s (m)     point group:


     Atomic displacements:
     There are   60 irreducible representations

     Representation     1      1 modes -  To be done

     Representation     2      1 modes -  To be done

     Representation     3      1 modes -  To be done

     Representation     4      1 modes -  To be done

     Representation     5      1 modes -  To be done

     Representation     6      1 modes -  To be done

     Representation     7      1 modes -  To be done

     Representation     8      1 modes -  To be done

     Representation     9      1 modes -  To be done

     Representation    10      1 modes -  To be done

     Representation    11      1 modes -  To be done

     Representation    12      1 modes -  To be done

     Representation    13      1 modes -  To be done

     Representation    14      1 modes -  To be done

     Representation    15      1 modes -  To be done

     Representation    16      1 modes -  To be done

     Representation    17      1 modes -  To be done

     Representation    18      1 modes -  To be done

     Representation    19      1 modes -  To be done

     Representation    20      1 modes -  To be done

     Representation    21      1 modes -  To be done

     Representation    22      1 modes -  To be done

     Representation    23      1 modes -  To be done

     Representation    24      1 modes -  To be done

     Representation    25      1 modes -  To be done

     Representation    26      1 modes -  To be done

     Representation    27      1 modes -  To be done

     Representation    28      1 modes -  To be done

     Representation    29      1 modes -  To be done

     Representation    30      1 modes -  To be done

     Representation    31      1 modes -  To be done

     Representation    32      1 modes -  To be done

     Representation    33      1 modes -  To be done

     Representation    34      1 modes -  To be done

     Representation    35      1 modes -  To be done

     Representation    36      1 modes -  To be done

     Representation    37      1 modes -  To be done

     Representation    38      1 modes -  To be done

     Representation    39      1 modes -  To be done

     Representation    40      1 modes -  To be done

     Representation    41      1 modes -  To be done

     Representation    42      1 modes -  To be done

     Representation    43      1 modes -  To be done

     Representation    44      1 modes -  To be done

     Representation    45      1 modes -  To be done

     Representation    46      1 modes -  To be done

     Representation    47      1 modes -  To be done

     Representation    48      1 modes -  To be done

     Representation    49      1 modes -  To be done

     Representation    50      1 modes -  To be done

     Representation    51      1 modes -  To be done

     Representation    52      1 modes -  To be done

     Representation    53      1 modes -  To be done

     Representation    54      1 modes -  To be done

     Representation    55      1 modes -  To be done

     Representation    56      1 modes -  To be done

     Representation    57      1 modes -  To be done

     Representation    58      1 modes -  To be done

     Representation    59      1 modes -  To be done

     Representation    60      1 modes -  To be done



     Alpha used in Ewald sum =   2.8000
     PHONON       :   6m59.96s CPU   7m19.34s WALL



     Representation #   1 mode #   1

     Self-consistent Calculation

      iter #   1 total cpu time :   472.5 secs   av.it.:   4.9
      thresh= 1.000E-02 alpha_mix =  0.700 |ddv_scf|^2 =  3.171E-05

      iter #   2 total cpu time :   532.5 secs   av.it.:  13.3
      thresh= 5.632E-04 alpha_mix =  0.700 |ddv_scf|^2 =  5.807E-03

      iter #   3 total cpu time :   574.6 secs   av.it.:   8.7
      thresh= 7.620E-03 alpha_mix =  0.700 |ddv_scf|^2 =  2.310E-08

      iter #   4 total cpu time :   642.9 secs   av.it.:  14.5
      thresh= 1.520E-05 alpha_mix =  0.700 |ddv_scf|^2 =  4.426E-08

      iter #   5 total cpu time :   699.4 secs   av.it.:  12.1
      thresh= 2.104E-05 alpha_mix =  0.700 |ddv_scf|^2 =  3.666E-10

     End of self-consistent calculation

     Convergence has been achieved 


     Representation #   2 mode #   2

     Self-consistent Calculation

      iter #   1 total cpu time :   730.9 secs   av.it.:   5.3
      thresh= 1.000E-02 alpha_mix =  0.700 |ddv_scf|^2 =  3.513E-05

      iter #   2 total cpu time :   797.8 secs   av.it.:  13.3
      thresh= 5.927E-04 alpha_mix =  0.700 |ddv_scf|^2 =  6.432E-03

      iter #   3 total cpu time :   841.2 secs   av.it.:   8.7
      thresh= 8.020E-03 alpha_mix =  0.700 |ddv_scf|^2 =  1.909E-08

      iter #   4 total cpu time :   922.8 secs   av.it.:  14.6
      thresh= 1.382E-05 alpha_mix =  0.700 |ddv_scf|^2 =  3.687E-08

      iter #   5 total cpu time :  1016.0 secs   av.it.:  12.1
      thresh= 1.920E-05 alpha_mix =  0.700 |ddv_scf|^2 =  2.162E-10

     End of self-consistent calculation

     Convergence has been achieved 


     Representation #   3 mode #   3

     Self-consistent Calculation

      iter #   1 total cpu time :  1046.0 secs   av.it.:   5.2
      thresh= 1.000E-02 alpha_mix =  0.700 |ddv_scf|^2 =  3.511E-05

      iter #   2 total cpu time :  1135.6 secs   av.it.:  13.3
      thresh= 5.925E-04 alpha_mix =  0.700 |ddv_scf|^2 =  6.380E-03

      iter #   3 total cpu time :  1182.4 secs   av.it.:   8.7
      thresh= 7.988E-03 alpha_mix =  0.700 |ddv_scf|^2 =  3.895E-08

      iter #   4 total cpu time :  1245.7 secs   av.it.:  14.0
      thresh= 1.974E-05 alpha_mix =  0.700 |ddv_scf|^2 =  1.179E-08

      iter #   5 total cpu time :  1313.2 secs   av.it.:  13.1
      thresh= 1.086E-05 alpha_mix =  0.700 |ddv_scf|^2 =  1.419E-10

     End of self-consistent calculation

     Convergence has been achieved 


     Representation #   4 mode #   4

     Self-consistent Calculation

      iter #   1 total cpu time :  1351.1 secs   av.it.:   5.1
      thresh= 1.000E-02 alpha_mix =  0.700 |ddv_scf|^2 =  2.701E-05

      iter #   2 total cpu time :  1416.3 secs   av.it.:  13.3
      thresh= 5.197E-04 alpha_mix =  0.700 |ddv_scf|^2 =  4.917E-03

      iter #   3 total cpu time :  1460.6 secs   av.it.:   8.7
      thresh= 7.012E-03 alpha_mix =  0.700 |ddv_scf|^2 =  1.321E-08

      iter #   4 total cpu time :  1530.9 secs   av.it.:  14.5
      thresh= 1.149E-05 alpha_mix =  0.700 |ddv_scf|^2 =  3.443E-09

     End of self-consistent calculation

     Convergence has been achieved 


     Representation #   5 mode #   5

     Self-consistent Calculation

      iter #   1 total cpu time :  1567.1 secs   av.it.:   5.1
      thresh= 1.000E-02 alpha_mix =  0.700 |ddv_scf|^2 =  3.092E-05

      iter #   2 total cpu time :  1641.1 secs   av.it.:  13.3
      thresh= 5.561E-04 alpha_mix =  0.700 |ddv_scf|^2 =  5.618E-03

      iter #   3 total cpu time :  1688.0 secs   av.it.:   8.7
      thresh= 7.495E-03 alpha_mix =  0.700 |ddv_scf|^2 =  3.342E-08

      iter #   4 total cpu time :  1756.0 secs   av.it.:  13.7
      thresh= 1.828E-05 alpha_mix =  0.700 |ddv_scf|^2 =  1.091E-08

      iter #   5 total cpu time :  1815.7 secs   av.it.:  12.5
      thresh= 1.044E-05 alpha_mix =  0.700 |ddv_scf|^2 =  3.312E-10

     End of self-consistent calculation

     Convergence has been achieved 


     Representation #   6 mode #   6

     Self-consistent Calculation

      iter #   1 total cpu time :  1847.0 secs   av.it.:   4.9
      thresh= 1.000E-02 alpha_mix =  0.700 |ddv_scf|^2 =  1.537E-05

      iter #   2 total cpu time :  1921.0 secs   av.it.:  13.3
      thresh= 3.921E-04 alpha_mix =  0.700 |ddv_scf|^2 =  2.799E-03

      iter #   3 total cpu time :  1974.8 secs   av.it.:   8.7
      thresh= 5.291E-03 alpha_mix =  0.700 |ddv_scf|^2 =  1.099E-08

      iter #   4 total cpu time :  2046.3 secs   av.it.:  14.7
      thresh= 1.048E-05 alpha_mix =  0.700 |ddv_scf|^2 =  6.747E-09

     End of self-consistent calculation

     Convergence has been achieved 


     Representation #   7 mode #   7

     Self-consistent Calculation

      iter #   1 total cpu time :  2076.5 secs   av.it.:   4.7
      thresh= 1.000E-02 alpha_mix =  0.700 |ddv_scf|^2 =  1.143E-05

      iter #   2 total cpu time :  2148.2 secs   av.it.:  13.3
      thresh= 3.381E-04 alpha_mix =  0.700 |ddv_scf|^2 =  2.064E-03

      iter #   3 total cpu time :  2193.7 secs   av.it.:   8.7
      thresh= 4.543E-03 alpha_mix =  0.700 |ddv_scf|^2 =  4.940E-08

      iter #   4 total cpu time :  2264.4 secs   av.it.:  13.6
      thresh= 2.223E-05 alpha_mix =  0.700 |ddv_scf|^2 =  1.618E-08

      iter #   5 total cpu time :  2349.1 secs   av.it.:  12.6
      thresh= 1.272E-05 alpha_mix =  0.700 |ddv_scf|^2 =  4.913E-11

     End of self-consistent calculation

     Convergence has been achieved 


     Representation #   8 mode #   8

     Self-consistent Calculation

      iter #   1 total cpu time :  2381.9 secs   av.it.:   4.9
      thresh= 1.000E-02 alpha_mix =  0.700 |ddv_scf|^2 =  1.967E-05

      iter #   2 total cpu time :  2446.0 secs   av.it.:  13.3
      thresh= 4.435E-04 alpha_mix =  0.700 |ddv_scf|^2 =  3.581E-03

      iter #   3 total cpu time :  2491.1 secs   av.it.:   8.7
      thresh= 5.984E-03 alpha_mix =  0.700 |ddv_scf|^2 =  8.850E-09

     End of self-consistent calculation

     Convergence has been achieved 


     Representation #   9 mode #   9

     Self-consistent Calculation

      iter #   1 total cpu time :  2529.9 secs   av.it.:   6.0
      thresh= 1.000E-02 alpha_mix =  0.700 |ddv_scf|^2 =  4.700E-05

      iter #   2 total cpu time :  2591.4 secs   av.it.:  13.3
      thresh= 6.855E-04 alpha_mix =  0.700 |ddv_scf|^2 =  8.547E-03

      iter #   3 total cpu time :  2638.7 secs   av.it.:   8.7
      thresh= 9.245E-03 alpha_mix =  0.700 |ddv_scf|^2 =  3.750E-08

      iter #   4 total cpu time :  2701.0 secs   av.it.:  13.9
      thresh= 1.936E-05 alpha_mix =  0.700 |ddv_scf|^2 =  5.007E-09

     End of self-consistent calculation

     Convergence has been achieved 


     Representation #  10 mode #  10

     Self-consistent Calculation

      iter #   1 total cpu time :  2729.7 secs   av.it.:   4.6
      thresh= 1.000E-02 alpha_mix =  0.700 |ddv_scf|^2 =  9.853E-07

      iter #   2 total cpu time :  2795.7 secs   av.it.:  13.5
      thresh= 9.926E-05 alpha_mix =  0.700 |ddv_scf|^2 =  1.745E-04

      iter #   3 total cpu time :  2844.7 secs   av.it.:   8.7
      thresh= 1.321E-03 alpha_mix =  0.700 |ddv_scf|^2 =  8.544E-09

     End of self-consistent calculation

     Convergence has been achieved 


     Representation #  11 mode #  11

     Self-consistent Calculation

      iter #   1 total cpu time :  2874.6 secs   av.it.:   4.5
      thresh= 1.000E-02 alpha_mix =  0.700 |ddv_scf|^2 =  4.844E-06

      iter #   2 total cpu time :  2940.4 secs   av.it.:  13.4
      thresh= 2.201E-04 alpha_mix =  0.700 |ddv_scf|^2 =  8.755E-04

      iter #   3 total cpu time :  2987.7 secs   av.it.:   8.7
      thresh= 2.959E-03 alpha_mix =  0.700 |ddv_scf|^2 =  1.273E-08

      iter #   4 total cpu time :  3053.8 secs   av.it.:  13.9
      thresh= 1.128E-05 alpha_mix =  0.700 |ddv_scf|^2 =  2.005E-09

     End of self-consistent calculation

     Convergence has been achieved 


     Representation #  12 mode #  12

     Self-consistent Calculation

      iter #   1 total cpu time :  3087.1 secs   av.it.:   4.7
      thresh= 1.000E-02 alpha_mix =  0.700 |ddv_scf|^2 =  7.060E-06

      iter #   2 total cpu time :  3163.9 secs   av.it.:  13.4
      thresh= 2.657E-04 alpha_mix =  0.700 |ddv_scf|^2 =  1.288E-03

      iter #   3 total cpu time :  3215.3 secs   av.it.:   8.7
      thresh= 3.589E-03 alpha_mix =  0.700 |ddv_scf|^2 =  1.446E-09

     End of self-consistent calculation

     Convergence has been achieved 


     Representation #  13 mode #  13

     Self-consistent Calculation

      iter #   1 total cpu time :  3257.7 secs   av.it.:   3.9
      thresh= 1.000E-02 alpha_mix =  0.700 |ddv_scf|^2 =  2.238E-06

      iter #   2 total cpu time :  3333.3 secs   av.it.:  13.3
      thresh= 1.496E-04 alpha_mix =  0.700 |ddv_scf|^2 =  4.011E-04

      iter #   3 total cpu time :  3376.8 secs   av.it.:   8.7
      thresh= 2.003E-03 alpha_mix =  0.700 |ddv_scf|^2 =  1.756E-08

      iter #   4 total cpu time :  3445.0 secs   av.it.:  13.2
      thresh= 1.325E-05 alpha_mix =  0.700 |ddv_scf|^2 =  6.253E-09

     End of self-consistent calculation

     Convergence has been achieved 


     Representation #  14 mode #  14

     Self-consistent Calculation

      iter #   1 total cpu time :  3483.5 secs   av.it.:   6.7
      thresh= 1.000E-02 alpha_mix =  0.700 |ddv_scf|^2 =  3.448E-04

      iter #   2 total cpu time :  3561.6 secs   av.it.:  13.3
      thresh= 1.857E-03 alpha_mix =  0.700 |ddv_scf|^2 =  6.256E-02

      iter #   3 total cpu time :  3612.9 secs   av.it.:  10.3
      thresh= 1.000E-02 alpha_mix =  0.700 |ddv_scf|^2 =  5.349E-07

      iter #   4 total cpu time :  3671.7 secs   av.it.:  12.4
      thresh= 7.313E-05 alpha_mix =  0.700 |ddv_scf|^2 =  1.408E-07

      iter #   5 total cpu time :  3732.9 secs   av.it.:  11.6
      thresh= 3.753E-05 alpha_mix =  0.700 |ddv_scf|^2 =  1.309E-10

     End of self-consistent calculation

     Convergence has been achieved 


     Representation #  15 mode #  15

     Self-consistent Calculation

      iter #   1 total cpu time :  3774.3 secs   av.it.:   4.8
      thresh= 1.000E-02 alpha_mix =  0.700 |ddv_scf|^2 =  1.009E-05

      iter #   2 total cpu time :  3853.6 secs   av.it.:  13.4
      thresh= 3.176E-04 alpha_mix =  0.700 |ddv_scf|^2 =  1.843E-03

      iter #   3 total cpu time :  3902.6 secs   av.it.:   8.7
      thresh= 4.293E-03 alpha_mix =  0.700 |ddv_scf|^2 =  2.286E-09

     End of self-consistent calculation

     Convergence has been achieved 


     Representation #  16 mode #  16

     Self-consistent Calculation

      iter #   1 total cpu time :  3945.7 secs   av.it.:   4.6
      thresh= 1.000E-02 alpha_mix =  0.700 |ddv_scf|^2 =  5.533E-06

      iter #   2 total cpu time :  4014.8 secs   av.it.:  13.3
      thresh= 2.352E-04 alpha_mix =  0.700 |ddv_scf|^2 =  1.005E-03

      iter #   3 total cpu time :  4073.9 secs   av.it.:   8.7
      thresh= 3.170E-03 alpha_mix =  0.700 |ddv_scf|^2 =  3.460E-09

     End of self-consistent calculation

     Convergence has been achieved 


     Representation #  17 mode #  17

     Self-consistent Calculation

      iter #   1 total cpu time :  4114.9 secs   av.it.:   4.4
      thresh= 1.000E-02 alpha_mix =  0.700 |ddv_scf|^2 =  3.663E-06

      iter #   2 total cpu time :  4182.1 secs   av.it.:  13.3
      thresh= 1.914E-04 alpha_mix =  0.700 |ddv_scf|^2 =  6.608E-04

      iter #   3 total cpu time :  4225.9 secs   av.it.:   8.7
      thresh= 2.571E-03 alpha_mix =  0.700 |ddv_scf|^2 =  1.128E-08

      iter #   4 total cpu time :  4289.1 secs   av.it.:  13.9
      thresh= 1.062E-05 alpha_mix =  0.700 |ddv_scf|^2 =  6.402E-09

     End of self-consistent calculation

     Convergence has been achieved 


     Representation #  18 mode #  18

     Self-consistent Calculation

      iter #   1 total cpu time :  4327.1 secs   av.it.:   4.8
      thresh= 1.000E-02 alpha_mix =  0.700 |ddv_scf|^2 =  1.046E-05

      iter #   2 total cpu time :  4395.2 secs   av.it.:  13.4
      thresh= 3.234E-04 alpha_mix =  0.700 |ddv_scf|^2 =  1.907E-03

      iter #   3 total cpu time :  4438.8 secs   av.it.:   8.7
      thresh= 4.367E-03 alpha_mix =  0.700 |ddv_scf|^2 =  4.530E-09

     End of self-consistent calculation

     Convergence has been achieved 


     Representation #  19 mode #  19

     Self-consistent Calculation

      iter #   1 total cpu time :  4468.7 secs   av.it.:   4.7
      thresh= 1.000E-02 alpha_mix =  0.700 |ddv_scf|^2 =  6.924E-06

      iter #   2 total cpu time :  4546.4 secs   av.it.:  13.4
      thresh= 2.631E-04 alpha_mix =  0.700 |ddv_scf|^2 =  1.274E-03

      iter #   3 total cpu time :  4598.2 secs   av.it.:   8.7
      thresh= 3.570E-03 alpha_mix =  0.700 |ddv_scf|^2 =  2.823E-08

      iter #   4 total cpu time :  4679.2 secs   av.it.:  13.7
      thresh= 1.680E-05 alpha_mix =  0.700 |ddv_scf|^2 =  2.552E-08

      iter #   5 total cpu time :  4762.2 secs   av.it.:  11.8
      thresh= 1.598E-05 alpha_mix =  0.700 |ddv_scf|^2 =  5.917E-11

     End of self-consistent calculation

     Convergence has been achieved 


     Representation #  20 mode #  20

     Self-consistent Calculation

      iter #   1 total cpu time :  4808.9 secs   av.it.:   4.7
      thresh= 1.000E-02 alpha_mix =  0.700 |ddv_scf|^2 =  1.796E-05

      iter #   2 total cpu time :  4872.5 secs   av.it.:  13.3
      thresh= 4.238E-04 alpha_mix =  0.700 |ddv_scf|^2 =  3.288E-03

      iter #   3 total cpu time :  4921.0 secs   av.it.:   8.7
      thresh= 5.735E-03 alpha_mix =  0.700 |ddv_scf|^2 =  1.078E-08

      iter #   4 total cpu time :  4988.1 secs   av.it.:  14.6
      thresh= 1.038E-05 alpha_mix =  0.700 |ddv_scf|^2 =  2.139E-08

      iter #   5 total cpu time :  5046.6 secs   av.it.:  12.1
      thresh= 1.462E-05 alpha_mix =  0.700 |ddv_scf|^2 =  1.030E-10

     End of self-consistent calculation

     Convergence has been achieved 


     Representation #  21 mode #  21

     Self-consistent Calculation

      iter #   1 total cpu time :  5085.6 secs   av.it.:   4.4
      thresh= 1.000E-02 alpha_mix =  0.700 |ddv_scf|^2 =  1.701E-07

      iter #   2 total cpu time :  5155.2 secs   av.it.:  13.7
      thresh= 4.125E-05 alpha_mix =  0.700 |ddv_scf|^2 =  2.455E-05

      iter #   3 total cpu time :  5199.6 secs   av.it.:   8.8
      thresh= 4.955E-04 alpha_mix =  0.700 |ddv_scf|^2 =  6.796E-08

      iter #   4 total cpu time :  5264.1 secs   av.it.:  12.2
      thresh= 2.607E-05 alpha_mix =  0.700 |ddv_scf|^2 =  4.510E-09

     End of self-consistent calculation

     Convergence has been achieved 


     Representation #  22 mode #  22

     Self-consistent Calculation

      iter #   1 total cpu time :  5294.2 secs   av.it.:   4.8
      thresh= 1.000E-02 alpha_mix =  0.700 |ddv_scf|^2 =  1.583E-05

      iter #   2 total cpu time :  5364.3 secs   av.it.:  13.3
      thresh= 3.979E-04 alpha_mix =  0.700 |ddv_scf|^2 =  2.884E-03

      iter #   3 total cpu time :  5406.8 secs   av.it.:   8.7
      thresh= 5.370E-03 alpha_mix =  0.700 |ddv_scf|^2 =  7.081E-09

     End of self-consistent calculation

     Convergence has been achieved 


     Representation #  23 mode #  23

     Self-consistent Calculation

      iter #   1 total cpu time :  5442.5 secs   av.it.:   5.1
      thresh= 1.000E-02 alpha_mix =  0.700 |ddv_scf|^2 =  2.898E-05

      iter #   2 total cpu time :  5511.8 secs   av.it.:  13.3
      thresh= 5.383E-04 alpha_mix =  0.700 |ddv_scf|^2 =  5.263E-03

      iter #   3 total cpu time :  5558.8 secs   av.it.:   8.7
      thresh= 7.254E-03 alpha_mix =  0.700 |ddv_scf|^2 =  4.201E-08

      iter #   4 total cpu time :  5637.0 secs   av.it.:  14.0
      thresh= 2.050E-05 alpha_mix =  0.700 |ddv_scf|^2 =  1.350E-08

      iter #   5 total cpu time :  5702.7 secs   av.it.:  13.1
      thresh= 1.162E-05 alpha_mix =  0.700 |ddv_scf|^2 =  6.511E-11

     End of self-consistent calculation

     Convergence has been achieved 


     Representation #  24 mode #  24

     Self-consistent Calculation

      iter #   1 total cpu time :  5736.9 secs   av.it.:   5.3
      thresh= 1.000E-02 alpha_mix =  0.700 |ddv_scf|^2 =  2.860E-05

      iter #   2 total cpu time :  5825.4 secs   av.it.:  13.3
      thresh= 5.348E-04 alpha_mix =  0.700 |ddv_scf|^2 =  5.219E-03

      iter #   3 total cpu time :  5877.6 secs   av.it.:   8.7
      thresh= 7.225E-03 alpha_mix =  0.700 |ddv_scf|^2 =  1.106E-08

      iter #   4 total cpu time :  5951.9 secs   av.it.:  15.0
      thresh= 1.051E-05 alpha_mix =  0.700 |ddv_scf|^2 =  1.290E-08

      iter #   5 total cpu time :  6014.8 secs   av.it.:  12.9
      thresh= 1.136E-05 alpha_mix =  0.700 |ddv_scf|^2 =  1.188E-10

     End of self-consistent calculation

     Convergence has been achieved 


     Representation #  25 mode #  25

     Self-consistent Calculation

      iter #   1 total cpu time :  6046.1 secs   av.it.:   4.8
      thresh= 1.000E-02 alpha_mix =  0.700 |ddv_scf|^2 =  7.953E-06

      iter #   2 total cpu time :  6124.1 secs   av.it.:  13.4
      thresh= 2.820E-04 alpha_mix =  0.700 |ddv_scf|^2 =  1.459E-03

      iter #   3 total cpu time :  6172.7 secs   av.it.:   8.7
      thresh= 3.819E-03 alpha_mix =  0.700 |ddv_scf|^2 =  2.089E-08

      iter #   4 total cpu time :  6246.2 secs   av.it.:  14.2
      thresh= 1.445E-05 alpha_mix =  0.700 |ddv_scf|^2 =  3.011E-08

      iter #   5 total cpu time :  6308.9 secs   av.it.:  12.0
      thresh= 1.735E-05 alpha_mix =  0.700 |ddv_scf|^2 =  1.420E-10

     End of self-consistent calculation

     Convergence has been achieved 


     Representation #  26 mode #  26

     Self-consistent Calculation

      iter #   1 total cpu time :  6339.5 secs   av.it.:   4.7
      thresh= 1.000E-02 alpha_mix =  0.700 |ddv_scf|^2 =  5.702E-06

      iter #   2 total cpu time :  6423.9 secs   av.it.:  13.4
      thresh= 2.388E-04 alpha_mix =  0.700 |ddv_scf|^2 =  1.039E-03

      iter #   3 total cpu time :  6488.5 secs   av.it.:   8.7
      thresh= 3.224E-03 alpha_mix =  0.700 |ddv_scf|^2 =  7.794E-09

     End of self-consistent calculation

     Convergence has been achieved 


     Representation #  27 mode #  27

     Self-consistent Calculation

      iter #   1 total cpu time :  6523.7 secs   av.it.:   5.2
      thresh= 1.000E-02 alpha_mix =  0.700 |ddv_scf|^2 =  2.897E-05

      iter #   2 total cpu time :  6607.0 secs   av.it.:  13.3
      thresh= 5.382E-04 alpha_mix =  0.700 |ddv_scf|^2 =  5.300E-03

      iter #   3 total cpu time :  6661.5 secs   av.it.:   8.7
      thresh= 7.280E-03 alpha_mix =  0.700 |ddv_scf|^2 =  1.293E-08

      iter #   4 total cpu time :  6740.9 secs   av.it.:  14.9
      thresh= 1.137E-05 alpha_mix =  0.700 |ddv_scf|^2 =  2.377E-08

      iter #   5 total cpu time :  6797.7 secs   av.it.:  12.4
      thresh= 1.542E-05 alpha_mix =  0.700 |ddv_scf|^2 =  9.743E-11

     End of self-consistent calculation

     Convergence has been achieved 


     Representation #  28 mode #  28

     Self-consistent Calculation

      iter #   1 total cpu time :  6845.3 secs   av.it.:   6.6
      thresh= 1.000E-02 alpha_mix =  0.700 |ddv_scf|^2 =  2.713E-04

      iter #   2 total cpu time :  6912.1 secs   av.it.:  13.3
      thresh= 1.647E-03 alpha_mix =  0.700 |ddv_scf|^2 =  4.915E-02

      iter #   3 total cpu time :  6975.7 secs   av.it.:  10.1
      thresh= 1.000E-02 alpha_mix =  0.700 |ddv_scf|^2 =  6.187E-07

      iter #   4 total cpu time :  7061.8 secs   av.it.:  12.7
      thresh= 7.866E-05 alpha_mix =  0.700 |ddv_scf|^2 =  2.281E-07

      iter #   5 total cpu time :  7124.1 secs   av.it.:  11.7
      thresh= 4.776E-05 alpha_mix =  0.700 |ddv_scf|^2 =  4.747E-11

     End of self-consistent calculation

     Convergence has been achieved 


     Representation #  29 mode #  29

     Self-consistent Calculation

      iter #   1 total cpu time :  7157.3 secs   av.it.:   4.8
      thresh= 1.000E-02 alpha_mix =  0.700 |ddv_scf|^2 =  1.311E-05

      iter #   2 total cpu time :  7249.4 secs   av.it.:  13.4
      thresh= 3.620E-04 alpha_mix =  0.700 |ddv_scf|^2 =  2.400E-03

      iter #   3 total cpu time :  7303.8 secs   av.it.:   8.7
      thresh= 4.899E-03 alpha_mix =  0.700 |ddv_scf|^2 =  9.287E-09

     End of self-consistent calculation

     Convergence has been achieved 


     Representation #  30 mode #  30

     Self-consistent Calculation

      iter #   1 total cpu time :  7336.8 secs   av.it.:   5.2
      thresh= 1.000E-02 alpha_mix =  0.700 |ddv_scf|^2 =  4.230E-05

      iter #   2 total cpu time :  7420.4 secs   av.it.:  13.3
      thresh= 6.504E-04 alpha_mix =  0.700 |ddv_scf|^2 =  7.690E-03

      iter #   3 total cpu time :  7464.8 secs   av.it.:   8.7
      thresh= 8.769E-03 alpha_mix =  0.700 |ddv_scf|^2 =  4.654E-08

      iter #   4 total cpu time :  7534.0 secs   av.it.:  14.2
      thresh= 2.157E-05 alpha_mix =  0.700 |ddv_scf|^2 =  1.527E-08

      iter #   5 total cpu time :  7607.1 secs   av.it.:  13.2
      thresh= 1.236E-05 alpha_mix =  0.700 |ddv_scf|^2 =  1.143E-10

     End of self-consistent calculation

     Convergence has been achieved 


     Representation #  31 mode #  31

     Self-consistent Calculation

      iter #   1 total cpu time :  7635.2 secs   av.it.:   4.6
      thresh= 1.000E-02 alpha_mix =  0.700 |ddv_scf|^2 =  6.349E-08

      iter #   2 total cpu time :  7707.0 secs   av.it.:  14.5
      thresh= 2.520E-05 alpha_mix =  0.700 |ddv_scf|^2 =  1.163E-07

      iter #   3 total cpu time :  7769.6 secs   av.it.:  13.3
      thresh= 3.410E-05 alpha_mix =  0.700 |ddv_scf|^2 =  1.907E-08

      iter #   4 total cpu time :  7834.6 secs   av.it.:  12.6
      thresh= 1.381E-05 alpha_mix =  0.700 |ddv_scf|^2 =  1.482E-09

     End of self-consistent calculation

     Convergence has been achieved 


     Representation #  32 mode #  32

     Self-consistent Calculation

      iter #   1 total cpu time :  7866.5 secs   av.it.:   4.7
      thresh= 1.000E-02 alpha_mix =  0.700 |ddv_scf|^2 =  2.344E-07

      iter #   2 total cpu time :  7955.3 secs   av.it.:  14.3
      thresh= 4.842E-05 alpha_mix =  0.700 |ddv_scf|^2 =  1.595E-06

      iter #   3 total cpu time :  8014.5 secs   av.it.:  12.3
      thresh= 1.263E-04 alpha_mix =  0.700 |ddv_scf|^2 =  7.965E-09

     End of self-consistent calculation

     Convergence has been achieved 


     Representation #  33 mode #  33

     Self-consistent Calculation

      iter #   1 total cpu time :  8047.7 secs   av.it.:   4.7
      thresh= 1.000E-02 alpha_mix =  0.700 |ddv_scf|^2 =  1.989E-07

      iter #   2 total cpu time :  8114.1 secs   av.it.:  14.5
      thresh= 4.459E-05 alpha_mix =  0.700 |ddv_scf|^2 =  1.407E-06

      iter #   3 total cpu time :  8170.2 secs   av.it.:  12.4
      thresh= 1.186E-04 alpha_mix =  0.700 |ddv_scf|^2 =  6.701E-09

     End of self-consistent calculation

     Convergence has been achieved 


     Representation #  34 mode #  34

     Self-consistent Calculation

      iter #   1 total cpu time :  8213.8 secs   av.it.:   6.0
      thresh= 1.000E-02 alpha_mix =  0.700 |ddv_scf|^2 =  1.545E-06

      iter #   2 total cpu time :  8278.3 secs   av.it.:  14.1
      thresh= 1.243E-04 alpha_mix =  0.700 |ddv_scf|^2 =  9.794E-06

      iter #   3 total cpu time :  8336.0 secs   av.it.:  12.2
      thresh= 3.129E-04 alpha_mix =  0.700 |ddv_scf|^2 =  9.522E-08

      iter #   4 total cpu time :  8398.4 secs   av.it.:  13.1
      thresh= 3.086E-05 alpha_mix =  0.700 |ddv_scf|^2 =  1.069E-09

     End of self-consistent calculation

     Convergence has been achieved 


     Representation #  35 mode #  35

     Self-consistent Calculation

      iter #   1 total cpu time :  8436.6 secs   av.it.:   4.9
      thresh= 1.000E-02 alpha_mix =  0.700 |ddv_scf|^2 =  4.082E-07

      iter #   2 total cpu time :  8507.7 secs   av.it.:  14.4
      thresh= 6.389E-05 alpha_mix =  0.700 |ddv_scf|^2 =  2.649E-06

      iter #   3 total cpu time :  8571.4 secs   av.it.:  12.4
      thresh= 1.628E-04 alpha_mix =  0.700 |ddv_scf|^2 =  3.047E-08

      iter #   4 total cpu time :  8640.5 secs   av.it.:  13.0
      thresh= 1.746E-05 alpha_mix =  0.700 |ddv_scf|^2 =  3.895E-10

     End of self-consistent calculation

     Convergence has been achieved 


     Representation #  36 mode #  36

     Self-consistent Calculation

      iter #   1 total cpu time :  8672.8 secs   av.it.:   4.7
      thresh= 1.000E-02 alpha_mix =  0.700 |ddv_scf|^2 =  1.641E-07

      iter #   2 total cpu time :  8761.6 secs   av.it.:  14.3
      thresh= 4.050E-05 alpha_mix =  0.700 |ddv_scf|^2 =  8.861E-07

      iter #   3 total cpu time :  8827.1 secs   av.it.:  12.4
      thresh= 9.413E-05 alpha_mix =  0.700 |ddv_scf|^2 =  1.839E-08

      iter #   4 total cpu time :  8930.5 secs   av.it.:  13.3
      thresh= 1.356E-05 alpha_mix =  0.700 |ddv_scf|^2 =  8.596E-10

     End of self-consistent calculation

     Convergence has been achieved 


     Representation #  37 mode #  37

     Self-consistent Calculation

      iter #   1 total cpu time :  8961.3 secs   av.it.:   4.3
      thresh= 1.000E-02 alpha_mix =  0.700 |ddv_scf|^2 =  1.139E-07

      iter #   2 total cpu time :  9027.7 secs   av.it.:  14.2
      thresh= 3.375E-05 alpha_mix =  0.700 |ddv_scf|^2 =  3.883E-07

      iter #   3 total cpu time :  9099.5 secs   av.it.:  12.6
      thresh= 6.231E-05 alpha_mix =  0.700 |ddv_scf|^2 =  2.836E-08

      iter #   4 total cpu time :  9159.1 secs   av.it.:  12.8
      thresh= 1.684E-05 alpha_mix =  0.700 |ddv_scf|^2 =  1.421E-09

     End of self-consistent calculation

     Convergence has been achieved 


     Representation #  38 mode #  38

     Self-consistent Calculation

      iter #   1 total cpu time :  9192.5 secs   av.it.:   5.1
      thresh= 1.000E-02 alpha_mix =  0.700 |ddv_scf|^2 =  4.957E-07

      iter #   2 total cpu time :  9265.4 secs   av.it.:  14.4
      thresh= 7.040E-05 alpha_mix =  0.700 |ddv_scf|^2 =  3.636E-06

      iter #   3 total cpu time :  9329.6 secs   av.it.:  12.3
      thresh= 1.907E-04 alpha_mix =  0.700 |ddv_scf|^2 =  1.578E-08

      iter #   4 total cpu time :  9391.4 secs   av.it.:  13.1
      thresh= 1.256E-05 alpha_mix =  0.700 |ddv_scf|^2 =  7.608E-10

     End of self-consistent calculation

     Convergence has been achieved 


     Representation #  39 mode #  39

     Self-consistent Calculation

      iter #   1 total cpu time :  9422.8 secs   av.it.:   4.7
      thresh= 1.000E-02 alpha_mix =  0.700 |ddv_scf|^2 =  1.701E-07

      iter #   2 total cpu time :  9507.2 secs   av.it.:  14.4
      thresh= 4.124E-05 alpha_mix =  0.700 |ddv_scf|^2 =  1.130E-06

      iter #   3 total cpu time :  9567.8 secs   av.it.:  12.4
      thresh= 1.063E-04 alpha_mix =  0.700 |ddv_scf|^2 =  7.653E-09

     End of self-consistent calculation

     Convergence has been achieved 


     Representation #  40 mode #  40

     Self-consistent Calculation

      iter #   1 total cpu time :  9602.3 secs   av.it.:   5.1
      thresh= 1.000E-02 alpha_mix =  0.700 |ddv_scf|^2 =  4.097E-07

      iter #   2 total cpu time :  9678.5 secs   av.it.:  14.5
      thresh= 6.400E-05 alpha_mix =  0.700 |ddv_scf|^2 =  3.097E-06

      iter #   3 total cpu time :  9744.0 secs   av.it.:  12.4
      thresh= 1.760E-04 alpha_mix =  0.700 |ddv_scf|^2 =  1.267E-08

      iter #   4 total cpu time :  9809.9 secs   av.it.:  13.1
      thresh= 1.125E-05 alpha_mix =  0.700 |ddv_scf|^2 =  7.755E-10

     End of self-consistent calculation

     Convergence has been achieved 


     Representation #  41 mode #  41

     Self-consistent Calculation

      iter #   1 total cpu time :  9837.0 secs   av.it.:   4.4
      thresh= 1.000E-02 alpha_mix =  0.700 |ddv_scf|^2 =  2.296E-07

      iter #   2 total cpu time :  9907.7 secs   av.it.:  13.9
      thresh= 4.792E-05 alpha_mix =  0.700 |ddv_scf|^2 =  9.647E-07

      iter #   3 total cpu time :  9971.9 secs   av.it.:  12.2
      thresh= 9.822E-05 alpha_mix =  0.700 |ddv_scf|^2 =  3.863E-08

      iter #   4 total cpu time : 10051.7 secs   av.it.:  12.9
      thresh= 1.965E-05 alpha_mix =  0.700 |ddv_scf|^2 =  1.082E-09

     End of self-consistent calculation

     Convergence has been achieved 


     Representation #  42 mode #  42

     Self-consistent Calculation

      iter #   1 total cpu time : 10096.6 secs   av.it.:   4.6
      thresh= 1.000E-02 alpha_mix =  0.700 |ddv_scf|^2 =  2.236E-07

      iter #   2 total cpu time : 10177.8 secs   av.it.:  14.1
      thresh= 4.728E-05 alpha_mix =  0.700 |ddv_scf|^2 =  1.085E-06

      iter #   3 total cpu time : 10236.0 secs   av.it.:  12.3
      thresh= 1.042E-04 alpha_mix =  0.700 |ddv_scf|^2 =  3.353E-08

      iter #   4 total cpu time : 10296.6 secs   av.it.:  13.0
      thresh= 1.831E-05 alpha_mix =  0.700 |ddv_scf|^2 =  7.386E-10

     End of self-consistent calculation

     Convergence has been achieved 


     Representation #  43 mode #  43

     Self-consistent Calculation

      iter #   1 total cpu time : 10335.6 secs   av.it.:   5.1
      thresh= 1.000E-02 alpha_mix =  0.700 |ddv_scf|^2 =  5.396E-07

      iter #   2 total cpu time : 10400.7 secs   av.it.:  14.4
      thresh= 7.346E-05 alpha_mix =  0.700 |ddv_scf|^2 =  4.103E-06

      iter #   3 total cpu time : 10461.8 secs   av.it.:  12.3
      thresh= 2.026E-04 alpha_mix =  0.700 |ddv_scf|^2 =  9.701E-09

     End of self-consistent calculation

     Convergence has been achieved 


     Representation #  44 mode #  44

     Self-consistent Calculation

      iter #   1 total cpu time : 10504.7 secs   av.it.:   4.6
      thresh= 1.000E-02 alpha_mix =  0.700 |ddv_scf|^2 =  9.058E-08

      iter #   2 total cpu time : 10587.8 secs   av.it.:  14.6
      thresh= 3.010E-05 alpha_mix =  0.700 |ddv_scf|^2 =  4.267E-07

      iter #   3 total cpu time : 10667.3 secs   av.it.:  12.6
      thresh= 6.533E-05 alpha_mix =  0.700 |ddv_scf|^2 =  2.048E-08

      iter #   4 total cpu time : 10733.7 secs   av.it.:  12.7
      thresh= 1.431E-05 alpha_mix =  0.700 |ddv_scf|^2 =  6.396E-10

     End of self-consistent calculation

     Convergence has been achieved 


     Representation #  45 mode #  45

     Self-consistent Calculation

      iter #   1 total cpu time : 10776.0 secs   av.it.:   4.3
      thresh= 1.000E-02 alpha_mix =  0.700 |ddv_scf|^2 =  3.843E-08

      iter #   2 total cpu time : 10863.7 secs   av.it.:  14.5
      thresh= 1.960E-05 alpha_mix =  0.700 |ddv_scf|^2 =  1.299E-07

      iter #   3 total cpu time : 10927.0 secs   av.it.:  12.8
      thresh= 3.604E-05 alpha_mix =  0.700 |ddv_scf|^2 =  1.201E-08

      iter #   4 total cpu time : 10986.9 secs   av.it.:  12.7
      thresh= 1.096E-05 alpha_mix =  0.700 |ddv_scf|^2 =  8.742E-10

     End of self-consistent calculation

     Convergence has been achieved 


     Representation #  46 mode #  46

     Self-consistent Calculation

      iter #   1 total cpu time : 11025.7 secs   av.it.:   6.1
      thresh= 1.000E-02 alpha_mix =  0.700 |ddv_scf|^2 =  1.232E-06

      iter #   2 total cpu time : 11090.1 secs   av.it.:  14.0
      thresh= 1.110E-04 alpha_mix =  0.700 |ddv_scf|^2 =  5.722E-06

      iter #   3 total cpu time : 11149.5 secs   av.it.:  12.2
      thresh= 2.392E-04 alpha_mix =  0.700 |ddv_scf|^2 =  1.983E-07

      iter #   4 total cpu time : 11209.6 secs   av.it.:  12.6
      thresh= 4.453E-05 alpha_mix =  0.700 |ddv_scf|^2 =  7.018E-10

     End of self-consistent calculation

     Convergence has been achieved 


     Representation #  47 mode #  47

     Self-consistent Calculation

      iter #   1 total cpu time : 11243.2 secs   av.it.:   5.0
      thresh= 1.000E-02 alpha_mix =  0.700 |ddv_scf|^2 =  3.787E-07

      iter #   2 total cpu time : 11312.0 secs   av.it.:  14.4
      thresh= 6.154E-05 alpha_mix =  0.700 |ddv_scf|^2 =  2.700E-06

      iter #   3 total cpu time : 11367.9 secs   av.it.:  12.3
      thresh= 1.643E-04 alpha_mix =  0.700 |ddv_scf|^2 =  1.377E-08

      iter #   4 total cpu time : 11429.0 secs   av.it.:  13.1
      thresh= 1.174E-05 alpha_mix =  0.700 |ddv_scf|^2 =  8.334E-10

     End of self-consistent calculation

     Convergence has been achieved 


     Representation #  48 mode #  48

     Self-consistent Calculation

      iter #   1 total cpu time : 11462.4 secs   av.it.:   4.8
      thresh= 1.000E-02 alpha_mix =  0.700 |ddv_scf|^2 =  2.669E-07

      iter #   2 total cpu time : 11533.0 secs   av.it.:  14.5
      thresh= 5.166E-05 alpha_mix =  0.700 |ddv_scf|^2 =  1.952E-06

      iter #   3 total cpu time : 11599.2 secs   av.it.:  12.4
      thresh= 1.397E-04 alpha_mix =  0.700 |ddv_scf|^2 =  7.807E-09

     End of self-consistent calculation

     Convergence has been achieved 


     Representation #  49 mode #  49

     Self-consistent Calculation

      iter #   1 total cpu time : 11627.8 secs   av.it.:   4.7
      thresh= 1.000E-02 alpha_mix =  0.700 |ddv_scf|^2 =  9.546E-08

      iter #   2 total cpu time : 11702.7 secs   av.it.:  14.6
      thresh= 3.090E-05 alpha_mix =  0.700 |ddv_scf|^2 =  5.671E-07

      iter #   3 total cpu time : 11759.4 secs   av.it.:  12.5
      thresh= 7.531E-05 alpha_mix =  0.700 |ddv_scf|^2 =  9.495E-09

     End of self-consistent calculation

     Convergence has been achieved 


     Representation #  50 mode #  50

     Self-consistent Calculation

      iter #   1 total cpu time : 11789.7 secs   av.it.:   4.9
      thresh= 1.000E-02 alpha_mix =  0.700 |ddv_scf|^2 =  3.422E-07

      iter #   2 total cpu time : 11863.2 secs   av.it.:  14.5
      thresh= 5.850E-05 alpha_mix =  0.700 |ddv_scf|^2 =  2.495E-06

      iter #   3 total cpu time : 11922.9 secs   av.it.:  12.4
      thresh= 1.580E-04 alpha_mix =  0.700 |ddv_scf|^2 =  1.363E-08

      iter #   4 total cpu time : 11982.2 secs   av.it.:  13.0
      thresh= 1.167E-05 alpha_mix =  0.700 |ddv_scf|^2 =  7.457E-10

     End of self-consistent calculation

     Convergence has been achieved 


     Representation #  51 mode #  51

     Self-consistent Calculation

      iter #   1 total cpu time : 12011.7 secs   av.it.:   4.5
      thresh= 1.000E-02 alpha_mix =  0.700 |ddv_scf|^2 =  6.538E-08

      iter #   2 total cpu time : 12088.7 secs   av.it.:  14.6
      thresh= 2.557E-05 alpha_mix =  0.700 |ddv_scf|^2 =  3.174E-07

      iter #   3 total cpu time : 12152.0 secs   av.it.:  12.6
      thresh= 5.634E-05 alpha_mix =  0.700 |ddv_scf|^2 =  1.304E-08

      iter #   4 total cpu time : 12212.3 secs   av.it.:  12.7
      thresh= 1.142E-05 alpha_mix =  0.700 |ddv_scf|^2 =  7.119E-10

     End of self-consistent calculation

     Convergence has been achieved 


     Representation #  52 mode #  52

     Self-consistent Calculation

      iter #   1 total cpu time : 12238.2 secs   av.it.:   4.2
      thresh= 1.000E-02 alpha_mix =  0.700 |ddv_scf|^2 =  2.925E-08

      iter #   2 total cpu time : 12308.3 secs   av.it.:  14.2
      thresh= 1.710E-05 alpha_mix =  0.700 |ddv_scf|^2 =  4.711E-08

      iter #   3 total cpu time : 12374.2 secs   av.it.:  13.0
      thresh= 2.170E-05 alpha_mix =  0.700 |ddv_scf|^2 =  1.252E-08

      iter #   4 total cpu time : 12434.8 secs   av.it.:  12.6
      thresh= 1.119E-05 alpha_mix =  0.700 |ddv_scf|^2 =  1.069E-09

     End of self-consistent calculation

     Convergence has been achieved 


     Representation #  53 mode #  53

     Self-consistent Calculation

      iter #   1 total cpu time : 12465.6 secs   av.it.:   4.8
      thresh= 1.000E-02 alpha_mix =  0.700 |ddv_scf|^2 =  2.286E-07

      iter #   2 total cpu time : 12567.4 secs   av.it.:  14.5
      thresh= 4.781E-05 alpha_mix =  0.700 |ddv_scf|^2 =  1.401E-06

      iter #   3 total cpu time : 12629.8 secs   av.it.:  12.4
      thresh= 1.184E-04 alpha_mix =  0.700 |ddv_scf|^2 =  2.197E-08

      iter #   4 total cpu time : 12715.5 secs   av.it.:  13.0
      thresh= 1.482E-05 alpha_mix =  0.700 |ddv_scf|^2 =  8.951E-10

     End of self-consistent calculation

     Convergence has been achieved 


     Representation #  54 mode #  54

     Self-consistent Calculation

      iter #   1 total cpu time : 12757.7 secs   av.it.:   5.7
      thresh= 1.000E-02 alpha_mix =  0.700 |ddv_scf|^2 =  2.009E-07

      iter #   2 total cpu time : 12826.4 secs   av.it.:  14.3
      thresh= 4.482E-05 alpha_mix =  0.700 |ddv_scf|^2 =  7.858E-07

      iter #   3 total cpu time : 12893.1 secs   av.it.:  12.5
      thresh= 8.864E-05 alpha_mix =  0.700 |ddv_scf|^2 =  4.199E-08

      iter #   4 total cpu time : 12952.5 secs   av.it.:  12.8
      thresh= 2.049E-05 alpha_mix =  0.700 |ddv_scf|^2 =  9.261E-10

     End of self-consistent calculation

     Convergence has been achieved 


     Representation #  55 mode #  55

     Self-consistent Calculation

      iter #   1 total cpu time : 12981.9 secs   av.it.:   4.8
      thresh= 1.000E-02 alpha_mix =  0.700 |ddv_scf|^2 =  2.991E-07

      iter #   2 total cpu time : 13050.2 secs   av.it.:  14.5
      thresh= 5.469E-05 alpha_mix =  0.700 |ddv_scf|^2 =  2.162E-06

      iter #   3 total cpu time : 13107.5 secs   av.it.:  12.4
      thresh= 1.470E-04 alpha_mix =  0.700 |ddv_scf|^2 =  1.228E-08

      iter #   4 total cpu time : 13173.4 secs   av.it.:  13.1
      thresh= 1.108E-05 alpha_mix =  0.700 |ddv_scf|^2 =  7.407E-10

     End of self-consistent calculation

     Convergence has been achieved 


     Representation #  56 mode #  56

     Self-consistent Calculation

      iter #   1 total cpu time : 13203.2 secs   av.it.:   4.4
      thresh= 1.000E-02 alpha_mix =  0.700 |ddv_scf|^2 =  1.821E-07

      iter #   2 total cpu time : 13274.9 secs   av.it.:  14.4
      thresh= 4.267E-05 alpha_mix =  0.700 |ddv_scf|^2 =  1.229E-06

      iter #   3 total cpu time : 13333.8 secs   av.it.:  12.3
      thresh= 1.109E-04 alpha_mix =  0.700 |ddv_scf|^2 =  7.888E-09

     End of self-consistent calculation

     Convergence has been achieved 


     Representation #  57 mode #  57

     Self-consistent Calculation

      iter #   1 total cpu time : 13363.0 secs   av.it.:   4.4
      thresh= 1.000E-02 alpha_mix =  0.700 |ddv_scf|^2 =  7.142E-08

      iter #   2 total cpu time : 13436.2 secs   av.it.:  14.1
      thresh= 2.673E-05 alpha_mix =  0.700 |ddv_scf|^2 =  2.758E-07

      iter #   3 total cpu time : 13496.7 secs   av.it.:  12.4
      thresh= 5.251E-05 alpha_mix =  0.700 |ddv_scf|^2 =  1.435E-08

      iter #   4 total cpu time : 13565.1 secs   av.it.:  13.2
      thresh= 1.198E-05 alpha_mix =  0.700 |ddv_scf|^2 =  1.210E-09

     End of self-consistent calculation

     Convergence has been achieved 


     Representation #  58 mode #  58

     Self-consistent Calculation

      iter #   1 total cpu time : 13598.8 secs   av.it.:   4.4
      thresh= 1.000E-02 alpha_mix =  0.700 |ddv_scf|^2 =  7.566E-08

      iter #   2 total cpu time : 13669.7 secs   av.it.:  14.3
      thresh= 2.751E-05 alpha_mix =  0.700 |ddv_scf|^2 =  2.963E-07

      iter #   3 total cpu time : 13731.5 secs   av.it.:  12.5
      thresh= 5.443E-05 alpha_mix =  0.700 |ddv_scf|^2 =  1.738E-08

      iter #   4 total cpu time : 13793.3 secs   av.it.:  12.9
      thresh= 1.318E-05 alpha_mix =  0.700 |ddv_scf|^2 =  9.631E-10

     End of self-consistent calculation

     Convergence has been achieved 


     Representation #  59 mode #  59

     Self-consistent Calculation

      iter #   1 total cpu time : 13824.0 secs   av.it.:   4.5
      thresh= 1.000E-02 alpha_mix =  0.700 |ddv_scf|^2 =  6.619E-08

      iter #   2 total cpu time : 13894.4 secs   av.it.:  14.2
      thresh= 2.573E-05 alpha_mix =  0.700 |ddv_scf|^2 =  1.373E-07

      iter #   3 total cpu time : 13957.5 secs   av.it.:  12.8
      thresh= 3.705E-05 alpha_mix =  0.700 |ddv_scf|^2 =  1.358E-08

      iter #   4 total cpu time : 14022.4 secs   av.it.:  12.9
      thresh= 1.165E-05 alpha_mix =  0.700 |ddv_scf|^2 =  1.754E-09

     End of self-consistent calculation

     Convergence has been achieved 


     Representation #  60 mode #  60

     Self-consistent Calculation

      iter #   1 total cpu time : 14050.3 secs   av.it.:   4.5
      thresh= 1.000E-02 alpha_mix =  0.700 |ddv_scf|^2 =  1.033E-07

      iter #   2 total cpu time : 14121.5 secs   av.it.:  14.5
      thresh= 3.214E-05 alpha_mix =  0.700 |ddv_scf|^2 =  4.945E-07

      iter #   3 total cpu time : 14180.0 secs   av.it.:  12.6
      thresh= 7.032E-05 alpha_mix =  0.700 |ddv_scf|^2 =  1.979E-08

      iter #   4 total cpu time : 14246.9 secs   av.it.:  12.9
      thresh= 1.407E-05 alpha_mix =  0.700 |ddv_scf|^2 =  7.403E-10

     End of self-consistent calculation

     Convergence has been achieved 
 
     Number of q in the star =   12
     List of q in the star:
          1   0.125000000   0.216506351   0.083180554
          2  -0.125000000   0.216506351  -0.083180554
          3   0.125000000  -0.216506351  -0.083180554
          4  -0.125000000   0.216506351   0.083180554
          5   0.250000000   0.000000000   0.083180554
          6  -0.250000000   0.000000000   0.083180554
          7   0.125000000  -0.216506351   0.083180554
          8  -0.125000000  -0.216506351  -0.083180554
          9   0.250000000  -0.000000000  -0.083180554
         10  -0.250000000   0.000000000  -0.083180554
         11   0.125000000   0.216506351  -0.083180554
         12  -0.125000000  -0.216506351   0.083180554

     Diagonalizing the dynamical matrix

     q = (    0.125000000   0.216506351   0.083180554 ) 

 **************************************************************************
     freq (    1) =     -26.499051 [THz] =    -883.913190 [cm-1]
     freq (    2) =     -22.591124 [THz] =    -753.558778 [cm-1]
     freq (    3) =      -4.815234 [THz] =    -160.618908 [cm-1]
     freq (    4) =       3.284895 [THz] =     109.572293 [cm-1]
     freq (    5) =       4.079937 [THz] =     136.092044 [cm-1]
     freq (    6) =       4.281114 [THz] =     142.802581 [cm-1]
     freq (    7) =       4.572298 [THz] =     152.515439 [cm-1]
     freq (    8) =       5.659554 [THz] =     188.782413 [cm-1]
     freq (    9) =       5.860372 [THz] =     195.480984 [cm-1]
     freq (   10) =      16.667679 [THz] =     555.973939 [cm-1]
     freq (   11) =      19.710099 [THz] =     657.458150 [cm-1]
     freq (   12) =      19.930131 [THz] =     664.797605 [cm-1]
     freq (   13) =      22.046653 [THz] =     735.397198 [cm-1]
     freq (   14) =      22.175127 [THz] =     739.682634 [cm-1]
     freq (   15) =      22.940219 [THz] =     765.203335 [cm-1]
     freq (   16) =      23.553030 [THz] =     785.644505 [cm-1]
     freq (   17) =      23.882742 [THz] =     796.642506 [cm-1]
     freq (   18) =      25.738676 [THz] =     858.549804 [cm-1]
     freq (   19) =      25.971123 [THz] =     866.303413 [cm-1]
     freq (   20) =      28.763592 [THz] =     959.450162 [cm-1]
     freq (   21) =      29.400275 [THz] =     980.687625 [cm-1]
     freq (   22) =      29.674995 [THz] =     989.851293 [cm-1]
     freq (   23) =      30.383831 [THz] =    1013.495513 [cm-1]
     freq (   24) =      30.595622 [THz] =    1020.560108 [cm-1]
     freq (   25) =      30.731615 [THz] =    1025.096345 [cm-1]
     freq (   26) =      31.054409 [THz] =    1035.863590 [cm-1]
     freq (   27) =      31.999406 [THz] =    1067.385280 [cm-1]
     freq (   28) =      32.168199 [THz] =    1073.015622 [cm-1]
     freq (   29) =      33.325587 [THz] =    1111.621925 [cm-1]
     freq (   30) =      33.824689 [THz] =    1128.270167 [cm-1]
     freq (   31) =      35.128287 [THz] =    1171.753529 [cm-1]
     freq (   32) =      35.382658 [THz] =    1180.238429 [cm-1]
     freq (   33) =      36.439429 [THz] =    1215.488531 [cm-1]
     freq (   34) =      37.218505 [THz] =    1241.475680 [cm-1]
     freq (   35) =      37.292567 [THz] =    1243.946133 [cm-1]
     freq (   36) =      37.717784 [THz] =    1258.129853 [cm-1]
     freq (   37) =      37.943777 [THz] =    1265.668174 [cm-1]
     freq (   38) =      39.450162 [THz] =    1315.915757 [cm-1]
     freq (   39) =      40.642977 [THz] =    1355.703792 [cm-1]
     freq (   40) =      40.952622 [THz] =    1366.032438 [cm-1]
     freq (   41) =      41.262337 [THz] =    1376.363420 [cm-1]
     freq (   42) =      41.564078 [THz] =    1386.428393 [cm-1]
     freq (   43) =      42.122127 [THz] =    1405.042909 [cm-1]
     freq (   44) =      42.305223 [THz] =    1411.150350 [cm-1]
     freq (   45) =      42.590979 [THz] =    1420.682153 [cm-1]
     freq (   46) =      43.557315 [THz] =    1452.915631 [cm-1]
     freq (   47) =      43.949481 [THz] =    1465.996872 [cm-1]
     freq (   48) =      44.415656 [THz] =    1481.546820 [cm-1]
     freq (   49) =      44.733327 [THz] =    1492.143167 [cm-1]
     freq (   50) =      45.501902 [THz] =    1517.780090 [cm-1]
     freq (   51) =      47.692896 [THz] =    1590.863762 [cm-1]
     freq (   52) =      48.212473 [THz] =    1608.195002 [cm-1]
     freq (   53) =      50.144238 [THz] =    1672.631741 [cm-1]
     freq (   54) =      51.678957 [THz] =    1723.824438 [cm-1]
     freq (   55) =      52.260803 [THz] =    1743.232740 [cm-1]
     freq (   56) =      52.652173 [THz] =    1756.287442 [cm-1]
     freq (   57) =      54.811712 [THz] =    1828.321897 [cm-1]
     freq (   58) =      55.946791 [THz] =    1866.184079 [cm-1]
     freq (   59) =      63.634102 [THz] =    2122.605152 [cm-1]
     freq (   60) =      64.310233 [THz] =    2145.158482 [cm-1]
 **************************************************************************

     Mode symmetry, C_s (m)     point group:

     freq (   1-   1) =       -883.9  [cm-1]   --> A''                
     freq (   2-   2) =       -753.6  [cm-1]   --> A''                
     freq (   3-   3) =       -160.6  [cm-1]   --> A'                 
     freq (   4-   4) =        109.6  [cm-1]   --> A''                
     freq (   5-   5) =        136.1  [cm-1]   --> A'                 
     freq (   6-   6) =        142.8  [cm-1]   --> A'                 
     freq (   7-   7) =        152.5  [cm-1]   --> A''                
     freq (   8-   8) =        188.8  [cm-1]   --> A''                
     freq (   9-   9) =        195.5  [cm-1]   --> A'                 
     freq (  10-  10) =        556.0  [cm-1]   --> A'                 
     freq (  11-  11) =        657.5  [cm-1]   --> A''                
     freq (  12-  12) =        664.8  [cm-1]   --> A'                 
     freq (  13-  13) =        735.4  [cm-1]   --> A''                
     freq (  14-  14) =        739.7  [cm-1]   --> A'                 
     freq (  15-  15) =        765.2  [cm-1]   --> A''                
     freq (  16-  16) =        785.6  [cm-1]   --> A'                 
     freq (  17-  17) =        796.6  [cm-1]   --> A''                
     freq (  18-  18) =        858.5  [cm-1]   --> A''                
     freq (  19-  19) =        866.3  [cm-1]   --> A'                 
     freq (  20-  20) =        959.5  [cm-1]   --> A''                
     freq (  21-  21) =        980.7  [cm-1]   --> A''                
     freq (  22-  22) =        989.9  [cm-1]   --> A'                 
     freq (  23-  23) =       1013.5  [cm-1]   --> A''                
     freq (  24-  24) =       1020.6  [cm-1]   --> A'                 
     freq (  25-  25) =       1025.1  [cm-1]   --> A'                 
     freq (  26-  26) =       1035.9  [cm-1]   --> A''                
     freq (  27-  27) =       1067.4  [cm-1]   --> A''                
     freq (  28-  28) =       1073.0  [cm-1]   --> A'                 
     freq (  29-  29) =       1111.6  [cm-1]   --> A'                 
     freq (  30-  30) =       1128.3  [cm-1]   --> A''                
     freq (  31-  31) =       1171.8  [cm-1]   --> A'                 
     freq (  32-  32) =       1180.2  [cm-1]   --> A'                 
     freq (  33-  33) =       1215.5  [cm-1]   --> A''                
     freq (  34-  34) =       1241.5  [cm-1]   --> A''                
     freq (  35-  35) =       1243.9  [cm-1]   --> A'                 
     freq (  36-  36) =       1258.1  [cm-1]   --> A'                 
     freq (  37-  37) =       1265.7  [cm-1]   --> A''                
     freq (  38-  38) =       1315.9  [cm-1]   --> A'                 
     freq (  39-  39) =       1355.7  [cm-1]   --> A'                 
     freq (  40-  40) =       1366.0  [cm-1]   --> A''                
     freq (  41-  41) =       1376.4  [cm-1]   --> A''                
     freq (  42-  42) =       1386.4  [cm-1]   --> A'                 
     freq (  43-  43) =       1405.0  [cm-1]   --> A'                 
     freq (  44-  44) =       1411.2  [cm-1]   --> A''                
     freq (  45-  45) =       1420.7  [cm-1]   --> A''                
     freq (  46-  46) =       1452.9  [cm-1]   --> A'                 
     freq (  47-  47) =       1466.0  [cm-1]   --> A''                
     freq (  48-  48) =       1481.5  [cm-1]   --> A'                 
     freq (  49-  49) =       1492.1  [cm-1]   --> A''                
     freq (  50-  50) =       1517.8  [cm-1]   --> A'                 
     freq (  51-  51) =       1590.9  [cm-1]   --> A'                 
     freq (  52-  52) =       1608.2  [cm-1]   --> A''                
     freq (  53-  53) =       1672.6  [cm-1]   --> A''                
     freq (  54-  54) =       1723.8  [cm-1]   --> A'                 
     freq (  55-  55) =       1743.2  [cm-1]   --> A''                
     freq (  56-  56) =       1756.3  [cm-1]   --> A'                 
     freq (  57-  57) =       1828.3  [cm-1]   --> A''                
     freq (  58-  58) =       1866.2  [cm-1]   --> A'                 
     freq (  59-  59) =       2122.6  [cm-1]   --> A''                
     freq (  60-  60) =       2145.2  [cm-1]   --> A'                 

     Calculation of q =    0.1250000   0.2165064   0.2495417
     [opt_tetra]  Optimized tetrahedron method is used.
 
     Parallelization info
     --------------------
     sticks:   dense  smooth     PW     G-vecs:    dense   smooth      PW
     Min          57      57     18                 2405     2405     408
     Max          58      58     19                 2414     2414     411
     Sum        1159    1159    361                48237    48237    8171
 
     Using Slab Decomposition
 

     Title: 
     Electron-phonon coefficients for Th2H18                                    


     bravais-lattice index     =            4
     lattice parameter (alat)  =       7.2656  a.u.
     unit-cell volume          =     499.1617 (a.u.)^3
     number of atoms/cell      =           20
     number of atomic types    =            2
     number of electrons       =        26.00
     number of Kohn-Sham states=           17
     kinetic-energy cutoff     =      80.0000  Ry
     charge density cutoff     =     320.0000  Ry
     Exchange-correlation= PZ
                           (   1   1   0   0   0   0   0)

     celldm(1)=   7.265644  celldm(2)=   0.000000  celldm(3)=   1.502755
     celldm(4)=   0.000000  celldm(5)=   0.000000  celldm(6)=   0.000000

     crystal axes: (cart. coord. in units of alat)
               a(1) = (   1.000000   0.000000   0.000000 )  
               a(2) = (  -0.500000   0.866025   0.000000 )  
               a(3) = (   0.000000   0.000000   1.502755 )  

     reciprocal axes: (cart. coord. in units 2 pi/alat)
               b(1) = (  1.000000  0.577350  0.000000 )  
               b(2) = (  0.000000  1.154701  0.000000 )  
               b(3) = (  0.000000  0.000000  0.665444 )  


     PseudoPot. # 1 for H  read from file:
     ./H.UPF
     MD5 check sum: df8e43189db5a2d7f03d0dd74d71ce72
     Pseudo is Norm-conserving, Zval =  1.0
     Generated in analytical, separable form
     Using radial grid of  929 points,  0 beta functions with: 

     PseudoPot. # 2 for Th read from file:
     ./Th.UPF
     MD5 check sum: a439cebac19eeec3fe133fa10c950477
     Pseudo is Norm-conserving + core correction, Zval =  4.0
     Generated using "atomic" code by A. Dal Corso  v.5.0.99 svn rev. 10869
     Using radial grid of 1289 points,  3 beta functions with: 
                l(1) =   1
                l(2) =   2
                l(3) =   3

     atomic species   valence    mass     pseudopotential
        H              1.00     1.00794     H ( 1.00)
        Th             4.00   232.03806     Th( 1.00)

     24 Sym. Ops., with inversion, found



   Cartesian axes

     site n.     atom                  positions (alat units)
         1           Th  tau(   1) = (   0.5000000   0.2886751   1.1270663  )
         2           Th  tau(   2) = (   0.0000000   0.5773503   0.3756888  )
         3           H   tau(   3) = (   0.0000000   0.0000000   0.3756888  )
         4           H   tau(   4) = (   0.0000000   0.0000000   1.1270663  )
         5           H   tau(   5) = (   0.5000000   0.2886751   0.2365190  )
         6           H   tau(   6) = (   0.0000000   0.5773503   0.9878965  )
         7           H   tau(   7) = (  -0.0000000   0.5773503   1.2662361  )
         8           H   tau(   8) = (   0.5000000   0.2886751   0.5148586  )
         9           H   tau(   9) = (   0.5000000   0.6036057   0.0891906  )
        10           H   tau(  10) = (   0.2272622   0.1312099   0.0891906  )
        11           H   tau(  11) = (   0.7727378   0.1312099   0.0891906  )
        12           H   tau(  12) = (   0.0000000   0.2624197   0.8405681  )
        13           H   tau(  13) = (   0.2727378   0.7348155   0.8405681  )
        14           H   tau(  14) = (  -0.2727378   0.7348155   0.8405681  )
        15           H   tau(  15) = (   0.2727378   0.7348155   1.4135645  )
        16           H   tau(  16) = (   0.0000000   0.2624197   1.4135645  )
        17           H   tau(  17) = (  -0.2727378   0.7348155   1.4135645  )
        18           H   tau(  18) = (   0.2272622   0.1312099   0.6621869  )
        19           H   tau(  19) = (   0.5000000   0.6036057   0.6621869  )
        20           H   tau(  20) = (   0.7727378   0.1312099   0.6621869  )

     number of k points=  1872 (tetrahedron method)

     Number of k-points >= 100: set verbosity='high' to print them.

[...]

      iter #   1 total cpu time :224113.7 secs   av.it.:   3.9
      thresh= 1.000E-02 alpha_mix =  0.700 |ddv_scf|^2 =  6.053E-09

     End of self-consistent calculation

     Convergence has been achieved 


     Representation #  47 mode #  47

     Self-consistent Calculation

      iter #   1 total cpu time :224159.8 secs   av.it.:   4.2
      thresh= 1.000E-02 alpha_mix =  0.700 |ddv_scf|^2 =  1.037E-08

      iter #   2 total cpu time :224228.2 secs   av.it.:  14.2
      thresh= 1.018E-05 alpha_mix =  0.700 |ddv_scf|^2 =  1.313E-09

     End of self-consistent calculation

     Convergence has been achieved 


     Representation #  48 mode #  48

     Self-consistent Calculation

      iter #   1 total cpu time :224255.6 secs   av.it.:   4.5
      thresh= 1.000E-02 alpha_mix =  0.700 |ddv_scf|^2 =  3.068E-08

      iter #   2 total cpu time :224333.5 secs   av.it.:  14.0
      thresh= 1.752E-05 alpha_mix =  0.700 |ddv_scf|^2 =  7.603E-09

     End of self-consistent calculation

     Convergence has been achieved 


     Representation #  49 mode #  49

     Self-consistent Calculation

      iter #   1 total cpu time :224361.6 secs   av.it.:   4.0
      thresh= 1.000E-02 alpha_mix =  0.700 |ddv_scf|^2 =  5.993E-09

     End of self-consistent calculation

     Convergence has been achieved 


     Representation #  50 mode #  50

     Self-consistent Calculation

      iter #   1 total cpu time :224390.9 secs   av.it.:   4.3
      thresh= 1.000E-02 alpha_mix =  0.700 |ddv_scf|^2 =  2.615E-08

      iter #   2 total cpu time :224456.3 secs   av.it.:  14.0
      thresh= 1.617E-05 alpha_mix =  0.700 |ddv_scf|^2 =  6.008E-09

     End of self-consistent calculation

     Convergence has been achieved 


     Representation #  51 mode #  51

     Self-consistent Calculation

      iter #   1 total cpu time :224482.3 secs   av.it.:   4.2
      thresh= 1.000E-02 alpha_mix =  0.700 |ddv_scf|^2 =  1.001E-08

      iter #   2 total cpu time :224552.7 secs   av.it.:  14.1
      thresh= 1.001E-05 alpha_mix =  0.700 |ddv_scf|^2 =  1.141E-09

     End of self-consistent calculation

     Convergence has been achieved 


     Representation #  52 mode #  52

     Self-consistent Calculation

      iter #   1 total cpu time :224583.2 secs   av.it.:   4.3
      thresh= 1.000E-02 alpha_mix =  0.700 |ddv_scf|^2 =  2.615E-08

      iter #   2 total cpu time :224659.9 secs   av.it.:  14.0
      thresh= 1.617E-05 alpha_mix =  0.700 |ddv_scf|^2 =  6.007E-09

     End of self-consistent calculation

     Convergence has been achieved 


     Representation #  53 mode #  53

     Self-consistent Calculation

      iter #   1 total cpu time :224687.1 secs   av.it.:   4.5
      thresh= 1.000E-02 alpha_mix =  0.700 |ddv_scf|^2 =  3.057E-08

      iter #   2 total cpu time :224755.7 secs   av.it.:  14.0
      thresh= 1.749E-05 alpha_mix =  0.700 |ddv_scf|^2 =  7.510E-09

     End of self-consistent calculation

     Convergence has been achieved 


     Representation #  54 mode #  54

     Self-consistent Calculation

      iter #   1 total cpu time :224788.3 secs   av.it.:   5.7
      thresh= 1.000E-02 alpha_mix =  0.700 |ddv_scf|^2 =  3.352E-08

      iter #   2 total cpu time :224857.5 secs   av.it.:  14.5
      thresh= 1.831E-05 alpha_mix =  0.700 |ddv_scf|^2 =  1.079E-08

      iter #   3 total cpu time :224919.8 secs   av.it.:  13.5
      thresh= 1.039E-05 alpha_mix =  0.700 |ddv_scf|^2 =  1.991E-11

     End of self-consistent calculation

     Convergence has been achieved 


     Representation #  55 mode #  55

     Self-consistent Calculation

      iter #   1 total cpu time :224944.4 secs   av.it.:   3.7
      thresh= 1.000E-02 alpha_mix =  0.700 |ddv_scf|^2 =  4.254E-09

     End of self-consistent calculation

     Convergence has been achieved 


     Representation #  56 mode #  56

     Self-consistent Calculation

      iter #   1 total cpu time :224971.8 secs   av.it.:   4.2
      thresh= 1.000E-02 alpha_mix =  0.700 |ddv_scf|^2 =  8.735E-09

     End of self-consistent calculation

     Convergence has been achieved 


     Representation #  57 mode #  57

     Self-consistent Calculation

      iter #   1 total cpu time :224997.7 secs   av.it.:   3.6
      thresh= 1.000E-02 alpha_mix =  0.700 |ddv_scf|^2 =  3.328E-09

     End of self-consistent calculation

     Convergence has been achieved 


     Representation #  58 mode #  58

     Self-consistent Calculation

      iter #   1 total cpu time :225033.5 secs   av.it.:   4.5
      thresh= 1.000E-02 alpha_mix =  0.700 |ddv_scf|^2 =  3.068E-08

      iter #   2 total cpu time :225097.0 secs   av.it.:  14.0
      thresh= 1.752E-05 alpha_mix =  0.700 |ddv_scf|^2 =  7.602E-09

     End of self-consistent calculation

     Convergence has been achieved 


     Representation #  59 mode #  59

     Self-consistent Calculation

      iter #   1 total cpu time :225123.3 secs   av.it.:   4.0
      thresh= 1.000E-02 alpha_mix =  0.700 |ddv_scf|^2 =  6.756E-09

     End of self-consistent calculation

     Convergence has been achieved 


     Representation #  60 mode #  60

     Self-consistent Calculation

      iter #   1 total cpu time :225158.8 secs   av.it.:   5.7
      thresh= 1.000E-02 alpha_mix =  0.700 |ddv_scf|^2 =  3.351E-08

      iter #   2 total cpu time :225238.0 secs   av.it.:  14.5
      thresh= 1.831E-05 alpha_mix =  0.700 |ddv_scf|^2 =  1.078E-08

      iter #   3 total cpu time :225310.4 secs   av.it.:  13.5
      thresh= 1.038E-05 alpha_mix =  0.700 |ddv_scf|^2 =  1.991E-11

     End of self-consistent calculation

     Convergence has been achieved 
 
     Number of q in the star =   12
     List of q in the star:
          1   0.375000000  -0.216506351   0.249541662
          2  -0.375000000  -0.216506351  -0.249541662
          3   0.375000000   0.216506351  -0.249541662
          4   0.375000000   0.216506351   0.249541662
          5   0.000000000  -0.433012702   0.249541662
          6   0.000000000   0.433012702   0.249541662
          7  -0.375000000  -0.216506351   0.249541662
          8   0.375000000  -0.216506351  -0.249541662
          9   0.000000000   0.433012702  -0.249541662
         10   0.000000000  -0.433012702  -0.249541662
         11  -0.375000000   0.216506351  -0.249541662
         12  -0.375000000   0.216506351   0.249541662

     Diagonalizing the dynamical matrix

     q = (    0.375000000  -0.216506351   0.249541662 ) 

 **************************************************************************
     freq (    1) =     -55.941077 [THz] =   -1865.993461 [cm-1]
     freq (    2) =     -51.246377 [THz] =   -1709.395133 [cm-1]
     freq (    3) =     -44.947045 [THz] =   -1499.272055 [cm-1]
     freq (    4) =     -33.321545 [THz] =   -1111.487110 [cm-1]
     freq (    5) =     -30.372977 [THz] =   -1013.133455 [cm-1]
     freq (    6) =     -29.550059 [THz] =    -985.683877 [cm-1]
     freq (    7) =     -26.901973 [THz] =    -897.353231 [cm-1]
     freq (    8) =     -24.465096 [THz] =    -816.067757 [cm-1]
     freq (    9) =     -17.496480 [THz] =    -583.619767 [cm-1]
     freq (   10) =     -16.350981 [THz] =    -545.410025 [cm-1]
     freq (   11) =     -12.248998 [THz] =    -408.582600 [cm-1]
     freq (   12) =       3.546927 [THz] =     118.312748 [cm-1]
     freq (   13) =       3.908948 [THz] =     130.388456 [cm-1]
     freq (   14) =       4.520922 [THz] =     150.801738 [cm-1]
     freq (   15) =       4.636907 [THz] =     154.670584 [cm-1]
     freq (   16) =       5.487484 [THz] =     183.042780 [cm-1]
     freq (   17) =       5.642672 [THz] =     188.219291 [cm-1]
     freq (   18) =      13.869268 [THz] =     462.628982 [cm-1]
     freq (   19) =      15.962184 [THz] =     532.441139 [cm-1]
     freq (   20) =      20.885390 [THz] =     696.661634 [cm-1]
     freq (   21) =      20.950140 [THz] =     698.821443 [cm-1]
     freq (   22) =      22.716707 [THz] =     757.747781 [cm-1]
     freq (   23) =      23.681562 [THz] =     789.931877 [cm-1]
     freq (   24) =      25.615585 [THz] =     854.443960 [cm-1]
     freq (   25) =      27.561777 [THz] =     919.361927 [cm-1]
     freq (   26) =      27.955089 [THz] =     932.481385 [cm-1]
     freq (   27) =      31.059859 [THz] =    1036.045377 [cm-1]
     freq (   28) =      31.103597 [THz] =    1037.504303 [cm-1]
     freq (   29) =      31.320793 [THz] =    1044.749193 [cm-1]
     freq (   30) =      32.242656 [THz] =    1075.499247 [cm-1]
     freq (   31) =      32.316704 [THz] =    1077.969209 [cm-1]
     freq (   32) =      33.490589 [THz] =    1117.125789 [cm-1]
     freq (   33) =      33.976547 [THz] =    1133.335627 [cm-1]
     freq (   34) =      35.729316 [THz] =    1191.801700 [cm-1]
     freq (   35) =      36.254282 [THz] =    1209.312689 [cm-1]
     freq (   36) =      36.587511 [THz] =    1220.428016 [cm-1]
     freq (   37) =      37.454285 [THz] =    1249.340470 [cm-1]
     freq (   38) =      37.849794 [THz] =    1262.533222 [cm-1]
     freq (   39) =      37.963170 [THz] =    1266.315041 [cm-1]
     freq (   40) =      38.490270 [THz] =    1283.897221 [cm-1]
     freq (   41) =      38.931722 [THz] =    1298.622450 [cm-1]
     freq (   42) =      40.236763 [THz] =    1342.153940 [cm-1]
     freq (   43) =      41.424215 [THz] =    1381.763088 [cm-1]
     freq (   44) =      41.632532 [THz] =    1388.711777 [cm-1]
     freq (   45) =      42.029612 [THz] =    1401.956965 [cm-1]
     freq (   46) =      42.667167 [THz] =    1423.223481 [cm-1]
     freq (   47) =      42.820309 [THz] =    1428.331776 [cm-1]
     freq (   48) =      43.329886 [THz] =    1445.329431 [cm-1]
     freq (   49) =      43.874973 [THz] =    1463.511556 [cm-1]
     freq (   50) =      44.010812 [THz] =    1468.042654 [cm-1]
     freq (   51) =      44.761098 [THz] =    1493.069518 [cm-1]
     freq (   52) =      45.115702 [THz] =    1504.897826 [cm-1]
     freq (   53) =      46.033140 [THz] =    1535.500283 [cm-1]
     freq (   54) =      46.999581 [THz] =    1567.737274 [cm-1]
     freq (   55) =      48.043335 [THz] =    1602.553158 [cm-1]
     freq (   56) =      48.522225 [THz] =    1618.527200 [cm-1]
     freq (   57) =      48.735238 [THz] =    1625.632563 [cm-1]
     freq (   58) =      58.257704 [THz] =    1943.267835 [cm-1]
     freq (   59) =      76.977214 [THz] =    2567.683470 [cm-1]
     freq (   60) =      89.332611 [THz] =    2979.815140 [cm-1]
 **************************************************************************

     Mode symmetry, C_s (m)     point group:

     freq (   1-   1) =      -1866.0  [cm-1]   --> A''                
     freq (   2-   2) =      -1709.4  [cm-1]   --> A''                
     freq (   3-   3) =      -1499.3  [cm-1]   --> A''                
     freq (   4-   4) =      -1111.5  [cm-1]   --> A''                
     freq (   5-   5) =      -1013.1  [cm-1]   --> A'                 
     freq (   6-   6) =       -985.7  [cm-1]   --> A''                
     freq (   7-   7) =       -897.4  [cm-1]   --> A''                
     freq (   8-   8) =       -816.1  [cm-1]   --> A''                
     freq (   9-   9) =       -583.6  [cm-1]   --> A''                
     freq (  10-  10) =       -545.4  [cm-1]   --> A'                 
     freq (  11-  11) =       -408.6  [cm-1]   --> A''                
     freq (  12-  12) =        118.3  [cm-1]   --> A'                 
     freq (  13-  13) =        130.4  [cm-1]   --> A'                 
     freq (  14-  14) =        150.8  [cm-1]   --> A''                
     freq (  15-  15) =        154.7  [cm-1]   --> A''                
     freq (  16-  16) =        183.0  [cm-1]   --> A'                 
     freq (  17-  17) =        188.2  [cm-1]   --> A'                 
     freq (  18-  18) =        462.6  [cm-1]   --> A'                 
     freq (  19-  19) =        532.4  [cm-1]   --> A'                 
     freq (  20-  20) =        696.7  [cm-1]   --> A'                 
     freq (  21-  21) =        698.8  [cm-1]   --> A''                
     freq (  22-  22) =        757.7  [cm-1]   --> A'                 
     freq (  23-  23) =        789.9  [cm-1]   --> A'                 
     freq (  24-  24) =        854.4  [cm-1]   --> A'                 
     freq (  25-  25) =        919.4  [cm-1]   --> A'                 
     freq (  26-  26) =        932.5  [cm-1]   --> A'                 
     freq (  27-  27) =       1036.0  [cm-1]   --> A''                
     freq (  28-  28) =       1037.5  [cm-1]   --> A'                 
     freq (  29-  29) =       1044.7  [cm-1]   --> A'                 
     freq (  30-  30) =       1075.5  [cm-1]   --> A''                
     freq (  31-  31) =       1078.0  [cm-1]   --> A'                 
     freq (  32-  32) =       1117.1  [cm-1]   --> A''                
     freq (  33-  33) =       1133.3  [cm-1]   --> A''                
     freq (  34-  34) =       1191.8  [cm-1]   --> A'                 
     freq (  35-  35) =       1209.3  [cm-1]   --> A'                 
     freq (  36-  36) =       1220.4  [cm-1]   --> A'                 
     freq (  37-  37) =       1249.3  [cm-1]   --> A''                
     freq (  38-  38) =       1262.5  [cm-1]   --> A''                
     freq (  39-  39) =       1266.3  [cm-1]   --> A'                 
     freq (  40-  40) =       1283.9  [cm-1]   --> A'                 
     freq (  41-  41) =       1298.6  [cm-1]   --> A'                 
     freq (  42-  42) =       1342.2  [cm-1]   --> A'                 
     freq (  43-  43) =       1381.8  [cm-1]   --> A'                 
     freq (  44-  44) =       1388.7  [cm-1]   --> A'                 
     freq (  45-  45) =       1402.0  [cm-1]   --> A'                 
     freq (  46-  46) =       1423.2  [cm-1]   --> A'                 
     freq (  47-  47) =       1428.3  [cm-1]   --> A''                
     freq (  48-  48) =       1445.3  [cm-1]   --> A''                
     freq (  49-  49) =       1463.5  [cm-1]   --> A'                 
     freq (  50-  50) =       1468.0  [cm-1]   --> A'                 
     freq (  51-  51) =       1493.1  [cm-1]   --> A'                 
     freq (  52-  52) =       1504.9  [cm-1]   --> A''                
     freq (  53-  53) =       1535.5  [cm-1]   --> A'                 
     freq (  54-  54) =       1567.7  [cm-1]   --> A'                 
     freq (  55-  55) =       1602.6  [cm-1]   --> A'                 
     freq (  56-  56) =       1618.5  [cm-1]   --> A''                
     freq (  57-  57) =       1625.6  [cm-1]   --> A'                 
     freq (  58-  58) =       1943.3  [cm-1]   --> A'                 
     freq (  59-  59) =       2567.7  [cm-1]   --> A''                
     freq (  60-  60) =       2979.8  [cm-1]   --> A''                
 
     init_run     :      1.23s CPU      1.62s WALL (      12 calls)
     electrons    :   6506.75s CPU   6773.38s WALL (      12 calls)

     Called by init_run:
     wfcinit      :      0.00s CPU      0.34s WALL (      12 calls)
     potinit      :      0.02s CPU      0.04s WALL (      12 calls)
     hinit0       :      0.34s CPU      0.34s WALL (      12 calls)

     Called by electrons:
     c_bands      :   6493.91s CPU   6760.50s WALL (      12 calls)
     v_of_rho     :      0.01s CPU      0.01s WALL (      13 calls)

     Called by c_bands:
     init_us_2    :    723.21s CPU    777.30s WALL ( 5311584 calls)
     init_us_2:cp :    711.37s CPU    765.53s WALL ( 5311584 calls)
     cegterg      :   5739.29s CPU   5877.23s WALL (  128559 calls)

     Called by *egterg:
     cdiaghg      :   2011.34s CPU   2051.04s WALL ( 2379994 calls)
     h_psi        : 138575.14s CPU 143469.21s WALL (73919376 calls)
     g_psi        :     18.28s CPU     18.69s WALL ( 2351194 calls)

     Called by h_psi:
     h_psi:calbec :   4470.20s CPU   4621.30s WALL (73919376 calls)
     vloc_psi     : 131427.52s CPU 136071.25s WALL (73919376 calls)
     add_vuspsi   :   1950.49s CPU   2027.36s WALL (73919376 calls)

     General routines
     calbec       :   7297.21s CPU   7569.84s WALL (******** calls)
     fft          :     10.57s CPU     11.25s WALL (   55524 calls)
     ffts         :    942.80s CPU    957.66s WALL (  907200 calls)
     fftw         : 171514.15s CPU 177151.57s WALL (******** calls)
     davcio       :    715.30s CPU   4822.12s WALL (19446405 calls)
 
     Parallel routines
 
     PHONON       :   2d11h10m CPU   2d14h35m WALL

     INITIALIZATION: 
     phq_setup    :      1.45s CPU      8.46s WALL (      12 calls)
     phq_init     :     34.75s CPU     36.39s WALL (      12 calls)
 
     phq_init     :     34.75s CPU     36.39s WALL (      12 calls)
     set_drhoc    :      0.95s CPU      0.95s WALL (      36 calls)
     init_vloc    :      0.14s CPU      0.14s WALL (      13 calls)
     init_us_1    :      0.08s CPU      0.08s WALL (      13 calls)
     init_us_2    :    723.21s CPU    777.30s WALL ( 5311584 calls)
 
     DYNAMICAL MATRIX:
     dynmat0      :     27.46s CPU     28.04s WALL (      12 calls)
     phqscf       : 206454.25s CPU 218474.23s WALL (      12 calls)
     dynmatrix    :      1.04s CPU      1.63s WALL (      12 calls)
 
     phqscf       : 206454.25s CPU 218474.23s WALL (      12 calls)
     solve_linter : 205970.22s CPU 217722.15s WALL (     720 calls)
     drhodv       :    481.75s CPU    530.01s WALL (     720 calls)
 
     dynmat0      :     27.46s CPU     28.04s WALL (      12 calls)
     dynmat_us    :     25.64s CPU     26.13s WALL (      12 calls)
     d2ionq       :      0.84s CPU      0.85s WALL (      12 calls)
     dynmatcc     :      0.92s CPU      0.93s WALL (      12 calls)
 
     dynmat_us    :     25.64s CPU     26.13s WALL (      12 calls)
 
     phqscf       : 206454.25s CPU 218474.23s WALL (      12 calls)
     solve_linter : 205970.22s CPU 217722.15s WALL (     720 calls)
 
     solve_linter : 205970.22s CPU 217722.15s WALL (     720 calls)
     dvqpsi_us    :   4009.90s CPU   4159.09s WALL (  864000 calls)
     sth_kernel   : 201638.18s CPU 212072.08s WALL (    2882 calls)
     apply_dpot_b :   9160.27s CPU   9686.19s WALL ( 2661984 calls)
     ortho        :    395.67s CPU    418.40s WALL ( 3525984 calls)
     cgsolve      : 147115.84s CPU 152369.83s WALL ( 3525984 calls)
     incdrhoscf   :  43181.65s CPU  44132.11s WALL ( 3525984 calls)
     dv_of_drho   :      1.21s CPU      1.37s WALL (    2882 calls)
     mix_pot      :     48.59s CPU    316.12s WALL (    2882 calls)
     psymdvscf    :     21.25s CPU     21.64s WALL (    1836 calls)
 
     dvqpsi_us    :   4009.90s CPU   4159.09s WALL (  864000 calls)
     dvqpsi_us_on :    203.11s CPU    208.81s WALL (  864000 calls)
 
     cgsolve      : 147115.84s CPU 152369.83s WALL ( 3525984 calls)
     ch_psi       : 143854.88s CPU 148966.01s WALL (71410823 calls)
 
     ch_psi       : 143854.88s CPU 148966.01s WALL (71410823 calls)
     h_psi        : 138575.14s CPU 143469.21s WALL (73919376 calls)
     last         :   7507.15s CPU   7790.19s WALL (71410823 calls)
 
     h_psi        : 138575.14s CPU 143469.21s WALL (73919376 calls)
     add_vuspsi   :   1950.49s CPU   2027.36s WALL (73919376 calls)
 
     incdrhoscf   :  43181.65s CPU  44132.11s WALL ( 3525984 calls)
 
 
      General routines
     calbec       :   7297.21s CPU   7569.84s WALL (******** calls)
     fft          :     10.57s CPU     11.25s WALL (   55524 calls)
     ffts         :    942.80s CPU    957.66s WALL (  907200 calls)
     fftw         : 171514.15s CPU 177151.57s WALL (******** calls)
     davcio       :    715.30s CPU   4822.12s WALL (19446405 calls)
     write_rec    :      3.52s CPU   1011.84s WALL (    3602 calls)
 
 
     PHONON       :   2d11h10m CPU   2d14h35m WALL

 
   This run was terminated on:  15:23:56  28May2022            

=------------------------------------------------------------------------------=
   JOB DONE.
=------------------------------------------------------------------------------=
