
     Program PHONON v.7.0 starts on 28May2022 at 15:23:57 

     This program is part of the open-source Quantum ESPRESSO suite
     for quantum simulation of materials; please cite
         "P. Giannozzi et al., J. Phys.:Condens. Matter 21 395502 (2009);
         "P. Giannozzi et al., J. Phys.:Condens. Matter 29 465901 (2017);
         "P. Giannozzi et al., J. Chem. Phys. 152 154105 (2020);
          URL http://www.quantum-espresso.org", 
     in publications or presentations arising from this work. More details at
     http://www.quantum-espresso.org/quote

     Parallel version (MPI), running on    20 processors

     MPI processes distributed on     1 nodes
     R & G space division:  proc/nbgrp/npool/nimage =      20
     319366 MiB available memory on the printing compute node when the environment starts
 
     Reading input from /home/mgrebenyuk/QE/Examples/ThH9/100GPa/4x4x4/elph.in

     Reading xml data from directory:

     ./Th2H18.save/

     IMPORTANT: XC functional enforced from input :
     Exchange-correlation= PZ
                           (   1   1   0   0   0   0   0)
     Any further DFT definition will be discarded
     Please, verify this is what you really want

 
     Parallelization info
     --------------------
     sticks:   dense  smooth     PW     G-vecs:    dense   smooth      PW
     Min          57      57     16                 2405     2405     368
     Max          58      58     18                 2414     2414     371
     Sum        1159    1159    337                48237    48237    7389
 
     Using Slab Decomposition
 
     Reading collected, re-writing distributed wavefunctions


     Dynamical matrices for ( 4, 4, 4)  uniform grid of q-points
     With a half shift
     (  12 q-points):
       N         xq(1)         xq(2)         xq(3) 
       1   0.125000000   0.216506351   0.083180554
       2   0.125000000   0.216506351   0.249541662
       3   0.125000000   0.505181486   0.083180554
       4   0.125000000   0.505181486   0.249541662
       5   0.125000000  -0.360843918   0.083180554
       6   0.125000000  -0.360843918   0.249541662
       7   0.125000000  -0.072168784   0.083180554
       8   0.125000000  -0.072168784   0.249541662
       9   0.375000000   0.649519053   0.083180554
      10   0.375000000   0.649519053   0.249541662
      11   0.375000000  -0.216506351   0.083180554
      12   0.375000000  -0.216506351   0.249541662
     Because shifted q grid is used, q2r will not work !

     Saving dvscf to file. Distribute only q points, not irreducible represetations.

     Calculation of q =    0.1250000   0.2165064   0.0831806

     Subspace diagonalization in iterative solution of the eigenvalue problem:
     a serial algorithm will be used

     [opt_tetra]  Optimized tetrahedron method is used.
 
     Parallelization info
     --------------------
     sticks:   dense  smooth     PW     G-vecs:    dense   smooth      PW
     Min          57      57     17                 2405     2405     395
     Max          58      58     18                 2414     2414     402
     Sum        1159    1159    349                48237    48237    7943
 
     Using Slab Decomposition
 

     Title: 
      Electron-phonon for Th2H18                                                


     bravais-lattice index     =            4
     lattice parameter (alat)  =       7.2656  a.u.
     unit-cell volume          =     499.1617 (a.u.)^3
     number of atoms/cell      =           20
     number of atomic types    =            2
     number of electrons       =        26.00
     number of Kohn-Sham states=           17
     kinetic-energy cutoff     =      80.0000  Ry
     charge density cutoff     =     320.0000  Ry
     Exchange-correlation= PZ
                           (   1   1   0   0   0   0   0)

     celldm(1)=   7.265644  celldm(2)=   0.000000  celldm(3)=   1.502755
     celldm(4)=   0.000000  celldm(5)=   0.000000  celldm(6)=   0.000000

     crystal axes: (cart. coord. in units of alat)
               a(1) = (   1.000000   0.000000   0.000000 )  
               a(2) = (  -0.500000   0.866025   0.000000 )  
               a(3) = (   0.000000   0.000000   1.502755 )  

     reciprocal axes: (cart. coord. in units 2 pi/alat)
               b(1) = (  1.000000  0.577350  0.000000 )  
               b(2) = (  0.000000  1.154701  0.000000 )  
               b(3) = (  0.000000  0.000000  0.665444 )  


     PseudoPot. # 1 for H  read from file:
     ./H.UPF
     MD5 check sum: df8e43189db5a2d7f03d0dd74d71ce72
     Pseudo is Norm-conserving, Zval =  1.0
     Generated in analytical, separable form
     Using radial grid of  929 points,  0 beta functions with: 

     PseudoPot. # 2 for Th read from file:
     ./Th.UPF
     MD5 check sum: a439cebac19eeec3fe133fa10c950477
     Pseudo is Norm-conserving + core correction, Zval =  4.0
     Generated using "atomic" code by A. Dal Corso  v.5.0.99 svn rev. 10869
     Using radial grid of 1289 points,  3 beta functions with: 
                l(1) =   1
                l(2) =   2
                l(3) =   3

     atomic species   valence    mass     pseudopotential
        H              1.00     1.00794     H ( 1.00)
        Th             4.00   232.03806     Th( 1.00)

     24 Sym. Ops., with inversion, found



   Cartesian axes

     site n.     atom                  positions (alat units)
         1           Th  tau(   1) = (   0.5000000   0.2886751   1.1270663  )
         2           Th  tau(   2) = (   0.0000000   0.5773503   0.3756888  )
         3           H   tau(   3) = (   0.0000000   0.0000000   0.3756888  )
         4           H   tau(   4) = (   0.0000000   0.0000000   1.1270663  )
         5           H   tau(   5) = (   0.5000000   0.2886751   0.2365190  )
         6           H   tau(   6) = (   0.0000000   0.5773503   0.9878965  )
         7           H   tau(   7) = (  -0.0000000   0.5773503   1.2662361  )
         8           H   tau(   8) = (   0.5000000   0.2886751   0.5148586  )
         9           H   tau(   9) = (   0.5000000   0.6036057   0.0891906  )
        10           H   tau(  10) = (   0.2272622   0.1312099   0.0891906  )
        11           H   tau(  11) = (   0.7727378   0.1312099   0.0891906  )
        12           H   tau(  12) = (   0.0000000   0.2624197   0.8405681  )
        13           H   tau(  13) = (   0.2727378   0.7348155   0.8405681  )
        14           H   tau(  14) = (  -0.2727378   0.7348155   0.8405681  )
        15           H   tau(  15) = (   0.2727378   0.7348155   1.4135645  )
        16           H   tau(  16) = (   0.0000000   0.2624197   1.4135645  )
        17           H   tau(  17) = (  -0.2727378   0.7348155   1.4135645  )
        18           H   tau(  18) = (   0.2272622   0.1312099   0.6621869  )
        19           H   tau(  19) = (   0.5000000   0.6036057   0.6621869  )
        20           H   tau(  20) = (   0.7727378   0.1312099   0.6621869  )

     number of k points=  1872 (tetrahedron method)

     Number of k-points >= 100: set verbosity='high' to print them.

     Dense  grid:    48237 G-vectors     FFT dimensions: (  45,  45,  64)

     Estimated max dynamical RAM per process >       3.18 MB

     Estimated total dynamical RAM >      63.69 MB

     The potential is recalculated from file :
     ./_ph0/Th2H18.q_1/Th2H18.save/charge-density

     Starting wfcs are   50 atomic wfcs

     Band Structure Calculation
     Davidson diagonalization with overlap
     c_bands:  1 eigenvalues not converged
     c_bands:  1 eigenvalues not converged
     c_bands:  1 eigenvalues not converged
     c_bands:  1 eigenvalues not converged
     c_bands:  1 eigenvalues not converged
     c_bands:  1 eigenvalues not converged
     c_bands:  1 eigenvalues not converged
     c_bands:  1 eigenvalues not converged
     c_bands:  1 eigenvalues not converged
     c_bands:  1 eigenvalues not converged
     c_bands:  1 eigenvalues not converged
     c_bands:  1 eigenvalues not converged
     c_bands:  1 eigenvalues not converged
     c_bands:  1 eigenvalues not converged
     c_bands:  1 eigenvalues not converged
     c_bands:  1 eigenvalues not converged
     c_bands:  1 eigenvalues not converged
     c_bands:  1 eigenvalues not converged
     c_bands:  1 eigenvalues not converged
     c_bands:  1 eigenvalues not converged
     c_bands:  1 eigenvalues not converged
     c_bands:  2 eigenvalues not converged
     c_bands:  1 eigenvalues not converged
     c_bands:  2 eigenvalues not converged
     c_bands:  1 eigenvalues not converged
     c_bands:  1 eigenvalues not converged
     c_bands:  1 eigenvalues not converged
     c_bands:  1 eigenvalues not converged
     c_bands:  1 eigenvalues not converged
     c_bands:  1 eigenvalues not converged
     c_bands:  1 eigenvalues not converged
     c_bands:  1 eigenvalues not converged
     c_bands:  1 eigenvalues not converged
     c_bands:  1 eigenvalues not converged
     c_bands:  1 eigenvalues not converged
     c_bands:  1 eigenvalues not converged
     c_bands:  1 eigenvalues not converged
     c_bands:  1 eigenvalues not converged
     c_bands:  1 eigenvalues not converged
     c_bands:  1 eigenvalues not converged
     c_bands:  1 eigenvalues not converged
     c_bands:  1 eigenvalues not converged
     c_bands:  1 eigenvalues not converged
     c_bands:  1 eigenvalues not converged
     c_bands:  1 eigenvalues not converged
     c_bands:  1 eigenvalues not converged
     c_bands:  1 eigenvalues not converged
     c_bands:  1 eigenvalues not converged
     c_bands:  2 eigenvalues not converged
     c_bands:  1 eigenvalues not converged
     c_bands:  2 eigenvalues not converged
     c_bands:  1 eigenvalues not converged
     c_bands:  1 eigenvalues not converged
     c_bands:  1 eigenvalues not converged
     c_bands:  1 eigenvalues not converged
     c_bands:  1 eigenvalues not converged
     c_bands:  1 eigenvalues not converged
     c_bands:  1 eigenvalues not converged
     c_bands:  1 eigenvalues not converged
     c_bands:  1 eigenvalues not converged
     c_bands:  1 eigenvalues not converged
     c_bands:  1 eigenvalues not converged
     c_bands:  1 eigenvalues not converged
     c_bands:  1 eigenvalues not converged
     c_bands:  1 eigenvalues not converged
     c_bands:  1 eigenvalues not converged
     c_bands:  1 eigenvalues not converged
     c_bands:  1 eigenvalues not converged
     c_bands:  1 eigenvalues not converged
     c_bands:  1 eigenvalues not converged
     c_bands:  1 eigenvalues not converged
     c_bands:  1 eigenvalues not converged
     c_bands:  1 eigenvalues not converged
     c_bands:  1 eigenvalues not converged
     c_bands:  1 eigenvalues not converged
     c_bands:  1 eigenvalues not converged
     c_bands:  1 eigenvalues not converged
     c_bands:  1 eigenvalues not converged
     c_bands:  1 eigenvalues not converged
     c_bands:  1 eigenvalues not converged
     c_bands:  1 eigenvalues not converged
     c_bands:  1 eigenvalues not converged
     c_bands:  1 eigenvalues not converged
     c_bands:  1 eigenvalues not converged
     c_bands:  1 eigenvalues not converged
     c_bands:  1 eigenvalues not converged
     c_bands:  1 eigenvalues not converged
     c_bands:  1 eigenvalues not converged
     c_bands:  1 eigenvalues not converged
     c_bands:  1 eigenvalues not converged
     c_bands:  1 eigenvalues not converged
     c_bands:  1 eigenvalues not converged
     c_bands:  1 eigenvalues not converged
     c_bands:  1 eigenvalues not converged
     c_bands:  1 eigenvalues not converged
     c_bands:  1 eigenvalues not converged
     c_bands:  1 eigenvalues not converged
     c_bands:  1 eigenvalues not converged
     c_bands:  1 eigenvalues not converged
     c_bands:  1 eigenvalues not converged
     c_bands:  1 eigenvalues not converged
     c_bands:  1 eigenvalues not converged
     c_bands:  1 eigenvalues not converged
     c_bands:  1 eigenvalues not converged
     c_bands:  1 eigenvalues not converged
     c_bands:  1 eigenvalues not converged
     c_bands:  1 eigenvalues not converged
     c_bands:  1 eigenvalues not converged
     c_bands:  1 eigenvalues not converged
     c_bands:  1 eigenvalues not converged
     c_bands:  1 eigenvalues not converged
     c_bands:  1 eigenvalues not converged
     c_bands:  1 eigenvalues not converged
     c_bands:  1 eigenvalues not converged
     c_bands:  1 eigenvalues not converged
     c_bands:  1 eigenvalues not converged
     c_bands:  1 eigenvalues not converged
     c_bands:  1 eigenvalues not converged
     c_bands:  1 eigenvalues not converged
     c_bands:  1 eigenvalues not converged
     c_bands:  1 eigenvalues not converged
     c_bands:  1 eigenvalues not converged
     c_bands:  1 eigenvalues not converged
     c_bands:  1 eigenvalues not converged
     c_bands:  1 eigenvalues not converged
     c_bands:  1 eigenvalues not converged
     c_bands:  1 eigenvalues not converged
     c_bands:  1 eigenvalues not converged
     c_bands:  1 eigenvalues not converged
     c_bands:  1 eigenvalues not converged
     c_bands:  1 eigenvalues not converged
     c_bands:  1 eigenvalues not converged
     c_bands:  1 eigenvalues not converged
     c_bands:  1 eigenvalues not converged
     c_bands:  1 eigenvalues not converged
     c_bands:  1 eigenvalues not converged
     c_bands:  1 eigenvalues not converged
     c_bands:  1 eigenvalues not converged
     c_bands:  1 eigenvalues not converged
     c_bands:  1 eigenvalues not converged
     c_bands:  1 eigenvalues not converged
     c_bands:  1 eigenvalues not converged
     c_bands:  1 eigenvalues not converged
     c_bands:  1 eigenvalues not converged
     c_bands:  1 eigenvalues not converged
     c_bands:  1 eigenvalues not converged
     c_bands:  1 eigenvalues not converged
     c_bands:  1 eigenvalues not converged
     c_bands:  1 eigenvalues not converged
     c_bands:  1 eigenvalues not converged
     c_bands:  1 eigenvalues not converged
     c_bands:  1 eigenvalues not converged
     c_bands:  1 eigenvalues not converged
     c_bands:  1 eigenvalues not converged
     c_bands:  1 eigenvalues not converged
     c_bands:  1 eigenvalues not converged
     c_bands:  1 eigenvalues not converged
     c_bands:  1 eigenvalues not converged
     c_bands:  1 eigenvalues not converged
     c_bands:  1 eigenvalues not converged
     c_bands:  1 eigenvalues not converged
     c_bands:  1 eigenvalues not converged
     c_bands:  1 eigenvalues not converged
     c_bands:  1 eigenvalues not converged
     c_bands:  1 eigenvalues not converged
     c_bands:  1 eigenvalues not converged
     c_bands:  1 eigenvalues not converged
     c_bands:  1 eigenvalues not converged
     c_bands:  1 eigenvalues not converged
     c_bands:  1 eigenvalues not converged
     c_bands:  1 eigenvalues not converged
     c_bands:  1 eigenvalues not converged
     c_bands:  1 eigenvalues not converged
     c_bands:  1 eigenvalues not converged
     c_bands:  1 eigenvalues not converged
     c_bands:  1 eigenvalues not converged
     c_bands:  1 eigenvalues not converged
     c_bands:  1 eigenvalues not converged
     c_bands:  1 eigenvalues not converged
     c_bands:  1 eigenvalues not converged
     c_bands:  1 eigenvalues not converged
     c_bands:  1 eigenvalues not converged
     c_bands:  1 eigenvalues not converged
     c_bands:  1 eigenvalues not converged
     c_bands:  1 eigenvalues not converged
     c_bands:  1 eigenvalues not converged
     c_bands:  1 eigenvalues not converged
     c_bands:  1 eigenvalues not converged
     c_bands:  1 eigenvalues not converged
     c_bands:  1 eigenvalues not converged
     c_bands:  1 eigenvalues not converged
     c_bands:  1 eigenvalues not converged
     c_bands:  1 eigenvalues not converged
     c_bands:  1 eigenvalues not converged
     c_bands:  1 eigenvalues not converged
     c_bands:  1 eigenvalues not converged
     c_bands:  1 eigenvalues not converged
     c_bands:  1 eigenvalues not converged
     c_bands:  1 eigenvalues not converged
     c_bands:  1 eigenvalues not converged
     c_bands:  1 eigenvalues not converged
     c_bands:  1 eigenvalues not converged
     c_bands:  1 eigenvalues not converged
     c_bands:  1 eigenvalues not converged
     c_bands:  1 eigenvalues not converged
     c_bands:  1 eigenvalues not converged
     c_bands:  1 eigenvalues not converged
     c_bands:  1 eigenvalues not converged
     c_bands:  1 eigenvalues not converged
     c_bands:  1 eigenvalues not converged
     c_bands:  1 eigenvalues not converged
     c_bands:  1 eigenvalues not converged
     c_bands:  1 eigenvalues not converged
     c_bands:  1 eigenvalues not converged
     c_bands:  1 eigenvalues not converged
     c_bands:  1 eigenvalues not converged
     c_bands:  1 eigenvalues not converged
     c_bands:  1 eigenvalues not converged
     c_bands:  1 eigenvalues not converged
     c_bands:  1 eigenvalues not converged
     c_bands:  1 eigenvalues not converged
     c_bands:  1 eigenvalues not converged
     c_bands:  1 eigenvalues not converged
     c_bands:  1 eigenvalues not converged
     c_bands:  1 eigenvalues not converged
     c_bands:  1 eigenvalues not converged
     c_bands:  1 eigenvalues not converged
     c_bands:  1 eigenvalues not converged
     c_bands:  1 eigenvalues not converged
     c_bands:  1 eigenvalues not converged
     c_bands:  1 eigenvalues not converged
     c_bands:  1 eigenvalues not converged
     c_bands:  1 eigenvalues not converged
     c_bands:  1 eigenvalues not converged
     c_bands:  1 eigenvalues not converged
     c_bands:  1 eigenvalues not converged
     c_bands:  1 eigenvalues not converged
     c_bands:  1 eigenvalues not converged
     c_bands:  1 eigenvalues not converged
     c_bands:  1 eigenvalues not converged
     c_bands:  1 eigenvalues not converged
     c_bands:  1 eigenvalues not converged
     c_bands:  1 eigenvalues not converged
     c_bands:  1 eigenvalues not converged
     c_bands:  1 eigenvalues not converged
     c_bands:  1 eigenvalues not converged
     c_bands:  1 eigenvalues not converged
     c_bands:  1 eigenvalues not converged
     c_bands:  1 eigenvalues not converged
     c_bands:  1 eigenvalues not converged
     c_bands:  1 eigenvalues not converged
     c_bands:  1 eigenvalues not converged

     ethr =  3.85E-11,  avg # of iterations = 81.2

     total cpu time spent up to now is      431.1 secs

     End of band structure calculation

     Number of k-points >= 100: set verbosity='high' to print the bands.

     the Fermi energy is    10.9313 ev

     Writing config to output data dir ./_ph0/Th2H18.q_1/Th2H18.save/
 
     [dfpt_tetra]  Dos(E_F)[/Ry] :   0.1636004E+02

      Electron-phonon for Th2H18                                                

     bravais-lattice index     =            4
     lattice parameter (alat)  =       7.2656  a.u.
     unit-cell volume          =     499.1617 (a.u.)^3
     number of atoms/cell      =           20
     number of atomic types    =            2
     kinetic-energy cut-off    =      80.0000  Ry
     charge density cut-off    =     320.0000  Ry
     convergence threshold     =      1.0E-08
     beta                      =       0.7000
     number of iterations used =            4
     Exchange-correlation= PZ
                           (   1   1   0   0   0   0   0)


     celldm(1)=    7.26564  celldm(2)=    0.00000  celldm(3)=    1.50276
     celldm(4)=    0.00000  celldm(5)=    0.00000  celldm(6)=    0.00000

     crystal axes: (cart. coord. in units of alat)
               a(1) = (  1.0000  0.0000  0.0000 )  
               a(2) = ( -0.5000  0.8660  0.0000 )  
               a(3) = (  0.0000  0.0000  1.5028 )  

     reciprocal axes: (cart. coord. in units 2 pi/alat)
               b(1) = (  1.0000  0.5774  0.0000 )  
               b(2) = (  0.0000  1.1547  0.0000 )  
               b(3) = (  0.0000  0.0000  0.6654 )  


     Atoms inside the unit cell: 

     Cartesian axes

     site n.  atom      mass           positions (alat units)
        1     Th 232.0381   tau(    1) = (    0.50000    0.28868    1.12707  )
        2     Th 232.0381   tau(    2) = (    0.00000    0.57735    0.37569  )
        3     H    1.0079   tau(    3) = (    0.00000    0.00000    0.37569  )
        4     H    1.0079   tau(    4) = (    0.00000    0.00000    1.12707  )
        5     H    1.0079   tau(    5) = (    0.50000    0.28868    0.23652  )
        6     H    1.0079   tau(    6) = (    0.00000    0.57735    0.98790  )
        7     H    1.0079   tau(    7) = (   -0.00000    0.57735    1.26624  )
        8     H    1.0079   tau(    8) = (    0.50000    0.28868    0.51486  )
        9     H    1.0079   tau(    9) = (    0.50000    0.60361    0.08919  )
       10     H    1.0079   tau(   10) = (    0.22726    0.13121    0.08919  )
       11     H    1.0079   tau(   11) = (    0.77274    0.13121    0.08919  )
       12     H    1.0079   tau(   12) = (    0.00000    0.26242    0.84057  )
       13     H    1.0079   tau(   13) = (    0.27274    0.73482    0.84057  )
       14     H    1.0079   tau(   14) = (   -0.27274    0.73482    0.84057  )
       15     H    1.0079   tau(   15) = (    0.27274    0.73482    1.41356  )
       16     H    1.0079   tau(   16) = (    0.00000    0.26242    1.41356  )
       17     H    1.0079   tau(   17) = (   -0.27274    0.73482    1.41356  )
       18     H    1.0079   tau(   18) = (    0.22726    0.13121    0.66219  )
       19     H    1.0079   tau(   19) = (    0.50000    0.60361    0.66219  )
       20     H    1.0079   tau(   20) = (    0.77274    0.13121    0.66219  )

     Computing dynamical matrix for 
                    q = (   0.1250000   0.2165064   0.0831806 )
 
      2 Sym.Ops. (no q -> -q+G )


     G cutoff =  427.8963  (   2414 G-vectors)     FFT grid: ( 45, 45, 64)
     number of k points=  1872

     PseudoPot. # 1 for H  read from file:
     ./H.UPF
     MD5 check sum: df8e43189db5a2d7f03d0dd74d71ce72
     Pseudo is Norm-conserving, Zval =  1.0
     Generated in analytical, separable form
     Using radial grid of  929 points,  0 beta functions with: 

     PseudoPot. # 2 for Th read from file:
     ./Th.UPF
     MD5 check sum: a439cebac19eeec3fe133fa10c950477
     Pseudo is Norm-conserving + core correction, Zval =  4.0
     Generated using "atomic" code by A. Dal Corso  v.5.0.99 svn rev. 10869
     Using radial grid of 1289 points,  3 beta functions with: 
                l(1) =   1
                l(2) =   2
                l(3) =   3

     Mode symmetry, C_s (m)     point group:


     Atomic displacements:
     There are   60 irreducible representations

     Representation     1      1 modes -  To be done

     Representation     2      1 modes -  To be done

     Representation     3      1 modes -  To be done

     Representation     4      1 modes -  To be done

     Representation     5      1 modes -  To be done

     Representation     6      1 modes -  To be done

     Representation     7      1 modes -  To be done

     Representation     8      1 modes -  To be done

     Representation     9      1 modes -  To be done

     Representation    10      1 modes -  To be done

     Representation    11      1 modes -  To be done

     Representation    12      1 modes -  To be done

     Representation    13      1 modes -  To be done

     Representation    14      1 modes -  To be done

     Representation    15      1 modes -  To be done

     Representation    16      1 modes -  To be done

     Representation    17      1 modes -  To be done

     Representation    18      1 modes -  To be done

     Representation    19      1 modes -  To be done

     Representation    20      1 modes -  To be done

     Representation    21      1 modes -  To be done

     Representation    22      1 modes -  To be done

     Representation    23      1 modes -  To be done

     Representation    24      1 modes -  To be done

     Representation    25      1 modes -  To be done

     Representation    26      1 modes -  To be done

     Representation    27      1 modes -  To be done

     Representation    28      1 modes -  To be done

     Representation    29      1 modes -  To be done

     Representation    30      1 modes -  To be done

     Representation    31      1 modes -  To be done

     Representation    32      1 modes -  To be done

     Representation    33      1 modes -  To be done

     Representation    34      1 modes -  To be done

     Representation    35      1 modes -  To be done

     Representation    36      1 modes -  To be done

     Representation    37      1 modes -  To be done

     Representation    38      1 modes -  To be done

     Representation    39      1 modes -  To be done

     Representation    40      1 modes -  To be done

     Representation    41      1 modes -  To be done

     Representation    42      1 modes -  To be done

     Representation    43      1 modes -  To be done

     Representation    44      1 modes -  To be done

     Representation    45      1 modes -  To be done

     Representation    46      1 modes -  To be done

     Representation    47      1 modes -  To be done

     Representation    48      1 modes -  To be done

     Representation    49      1 modes -  To be done

     Representation    50      1 modes -  To be done

     Representation    51      1 modes -  To be done

     Representation    52      1 modes -  To be done

     Representation    53      1 modes -  To be done

     Representation    54      1 modes -  To be done

     Representation    55      1 modes -  To be done

     Representation    56      1 modes -  To be done

     Representation    57      1 modes -  To be done

     Representation    58      1 modes -  To be done

     Representation    59      1 modes -  To be done

     Representation    60      1 modes -  To be done


     PHONON       :   6m54.01s CPU   7m17.08s WALL

     Reading dVscf from file dv
     Reading dynamics matrix from file Th2H18.dyn1

     Diagonalizing the dynamical matrix

     q = (    0.125000000   0.216506351   0.083180554 ) 

 **************************************************************************
     freq (    1) =     -26.499052 [THz] =    -883.913229 [cm-1]
     freq (    2) =     -22.591125 [THz] =    -753.558802 [cm-1]
     freq (    3) =      -4.815232 [THz] =    -160.618860 [cm-1]
     freq (    4) =       3.284894 [THz] =     109.572283 [cm-1]
     freq (    5) =       4.079937 [THz] =     136.092042 [cm-1]
     freq (    6) =       4.281114 [THz] =     142.802580 [cm-1]
     freq (    7) =       4.572298 [THz] =     152.515441 [cm-1]
     freq (    8) =       5.659554 [THz] =     188.782409 [cm-1]
     freq (    9) =       5.860374 [THz] =     195.481038 [cm-1]
     freq (   10) =      16.667680 [THz] =     555.973970 [cm-1]
     freq (   11) =      19.710099 [THz] =     657.458118 [cm-1]
     freq (   12) =      19.930132 [THz] =     664.797632 [cm-1]
     freq (   13) =      22.046650 [THz] =     735.397096 [cm-1]
     freq (   14) =      22.175129 [THz] =     739.682683 [cm-1]
     freq (   15) =      22.940220 [THz] =     765.203363 [cm-1]
     freq (   16) =      23.553032 [THz] =     785.644596 [cm-1]
     freq (   17) =      23.882741 [THz] =     796.642478 [cm-1]
     freq (   18) =      25.738675 [THz] =     858.549778 [cm-1]
     freq (   19) =      25.971124 [THz] =     866.303441 [cm-1]
     freq (   20) =      28.763592 [THz] =     959.450148 [cm-1]
     freq (   21) =      29.400276 [THz] =     980.687634 [cm-1]
     freq (   22) =      29.674997 [THz] =     989.851359 [cm-1]
     freq (   23) =      30.383830 [THz] =    1013.495460 [cm-1]
     freq (   24) =      30.595623 [THz] =    1020.560143 [cm-1]
     freq (   25) =      30.731615 [THz] =    1025.096337 [cm-1]
     freq (   26) =      31.054408 [THz] =    1035.863554 [cm-1]
     freq (   27) =      31.999406 [THz] =    1067.385295 [cm-1]
     freq (   28) =      32.168200 [THz] =    1073.015650 [cm-1]
     freq (   29) =      33.325586 [THz] =    1111.621906 [cm-1]
     freq (   30) =      33.824687 [THz] =    1128.270109 [cm-1]
     freq (   31) =      35.128286 [THz] =    1171.753506 [cm-1]
     freq (   32) =      35.382657 [THz] =    1180.238405 [cm-1]
     freq (   33) =      36.439429 [THz] =    1215.488518 [cm-1]
     freq (   34) =      37.218502 [THz] =    1241.475603 [cm-1]
     freq (   35) =      37.292567 [THz] =    1243.946128 [cm-1]
     freq (   36) =      37.717783 [THz] =    1258.129831 [cm-1]
     freq (   37) =      37.943776 [THz] =    1265.668143 [cm-1]
     freq (   38) =      39.450163 [THz] =    1315.915777 [cm-1]
     freq (   39) =      40.642977 [THz] =    1355.703769 [cm-1]
     freq (   40) =      40.952623 [THz] =    1366.032448 [cm-1]
     freq (   41) =      41.262337 [THz] =    1376.363408 [cm-1]
     freq (   42) =      41.564076 [THz] =    1386.428349 [cm-1]
     freq (   43) =      42.122126 [THz] =    1405.042879 [cm-1]
     freq (   44) =      42.305223 [THz] =    1411.150332 [cm-1]
     freq (   45) =      42.590979 [THz] =    1420.682130 [cm-1]
     freq (   46) =      43.557315 [THz] =    1452.915636 [cm-1]
     freq (   47) =      43.949479 [THz] =    1465.996832 [cm-1]
     freq (   48) =      44.415656 [THz] =    1481.546826 [cm-1]
     freq (   49) =      44.733326 [THz] =    1492.143152 [cm-1]
     freq (   50) =      45.501902 [THz] =    1517.780091 [cm-1]
     freq (   51) =      47.692896 [THz] =    1590.863760 [cm-1]
     freq (   52) =      48.212473 [THz] =    1608.195004 [cm-1]
     freq (   53) =      50.144238 [THz] =    1672.631734 [cm-1]
     freq (   54) =      51.678957 [THz] =    1723.824442 [cm-1]
     freq (   55) =      52.260803 [THz] =    1743.232760 [cm-1]
     freq (   56) =      52.652173 [THz] =    1756.287428 [cm-1]
     freq (   57) =      54.811712 [THz] =    1828.321904 [cm-1]
     freq (   58) =      55.946791 [THz] =    1866.184074 [cm-1]
     freq (   59) =      63.634102 [THz] =    2122.605158 [cm-1]
     freq (   60) =      64.310234 [THz] =    2145.158486 [cm-1]
 **************************************************************************

     [elph_tetra]   Lowest band which contains FS :         12
     [elph_tetra]  Highest band which contains FS :         15
     [elph_tetra]    # of bands which contains FS :          4
 
     Tetrahedron method
     DOS =  8.180019 states/spin/Ry/Unit Cell at Ef= 10.931316 eV
     double delta at Ef =129.420040
     lambda(    1)=  0.0000   gamma=    0.00 GHz
     lambda(    2)=  0.0000   gamma=    0.00 GHz
     lambda(    3)=  0.0000   gamma=    0.00 GHz
     lambda(    4)=  0.0063   gamma=    0.53 GHz
     lambda(    5)=  0.0632   gamma=    8.22 GHz
     lambda(    6)=  0.0277   gamma=    3.96 GHz
     lambda(    7)=  0.0031   gamma=    0.51 GHz
     lambda(    8)=  0.0102   gamma=    2.55 GHz
     lambda(    9)=  0.1528   gamma=   40.98 GHz
     lambda(   10)=  0.0507   gamma=  110.11 GHz
     lambda(   11)=  0.0867   gamma=  263.16 GHz
     lambda(   12)=  0.0566   gamma=  175.62 GHz
     lambda(   13)=  0.0562   gamma=  213.43 GHz
     lambda(   14)=  0.0319   gamma=  122.43 GHz
     lambda(   15)=  0.0486   gamma=  199.68 GHz
     lambda(   16)=  0.0481   gamma=  208.48 GHz
     lambda(   17)=  0.0234   gamma=  104.04 GHz
     lambda(   18)=  0.0342   gamma=  176.85 GHz
     lambda(   19)=  0.0683   gamma=  360.02 GHz
     lambda(   20)=  0.0297   gamma=  191.96 GHz
     lambda(   21)=  0.0203   gamma=  137.09 GHz
     lambda(   22)=  0.0128   gamma=   88.09 GHz
     lambda(   23)=  0.0174   gamma=  125.81 GHz
     lambda(   24)=  0.0129   gamma=   94.17 GHz
     lambda(   25)=  0.0062   gamma=   46.04 GHz
     lambda(   26)=  0.0218   gamma=  164.26 GHz
     lambda(   27)=  0.0132   gamma=  105.53 GHz
     lambda(   28)=  0.0328   gamma=  264.85 GHz
     lambda(   29)=  0.0162   gamma=  140.66 GHz
     lambda(   30)=  0.0206   gamma=  184.03 GHz
     lambda(   31)=  0.0184   gamma=  177.77 GHz
     lambda(   32)=  0.0192   gamma=  187.71 GHz
     lambda(   33)=  0.0067   gamma=   69.64 GHz
     lambda(   34)=  0.0086   gamma=   92.98 GHz
     lambda(   35)=  0.0061   gamma=   66.29 GHz
     lambda(   36)=  0.0067   gamma=   74.26 GHz
     lambda(   37)=  0.0051   gamma=   57.89 GHz
     lambda(   38)=  0.0096   gamma=  116.26 GHz
     lambda(   39)=  0.0038   gamma=   48.54 GHz
     lambda(   40)=  0.0106   gamma=  139.25 GHz
     lambda(   41)=  0.0037   gamma=   49.02 GHz
     lambda(   42)=  0.0054   gamma=   72.23 GHz
     lambda(   43)=  0.0086   gamma=  119.68 GHz
     lambda(   44)=  0.0066   gamma=   92.83 GHz
     lambda(   45)=  0.0063   gamma=   89.55 GHz
     lambda(   46)=  0.0018   gamma=   27.37 GHz
     lambda(   47)=  0.0035   gamma=   52.40 GHz
     lambda(   48)=  0.0061   gamma=   94.09 GHz
     lambda(   49)=  0.0078   gamma=  121.49 GHz
     lambda(   50)=  0.0042   gamma=   67.54 GHz
     lambda(   51)=  0.0055   gamma=   96.98 GHz
     lambda(   52)=  0.0041   gamma=   75.22 GHz
     lambda(   53)=  0.0044   gamma=   86.78 GHz
     lambda(   54)=  0.0076   gamma=  157.92 GHz
     lambda(   55)=  0.0050   gamma=  107.45 GHz
     lambda(   56)=  0.0036   gamma=   79.00 GHz
     lambda(   57)=  0.0047   gamma=  109.82 GHz
     lambda(   58)=  0.0064   gamma=  157.61 GHz
     lambda(   59)=  0.0052   gamma=  164.63 GHz
     lambda(   60)=  0.0027   gamma=   88.51 GHz
 
     Number of q in the star =   12
     List of q in the star:
          1   0.125000000   0.216506351   0.083180554
          2  -0.125000000   0.216506351  -0.083180554
          3   0.125000000  -0.216506351  -0.083180554
          4  -0.125000000   0.216506351   0.083180554
          5   0.250000000   0.000000000   0.083180554
          6  -0.250000000   0.000000000   0.083180554
          7   0.125000000  -0.216506351   0.083180554
          8  -0.125000000  -0.216506351  -0.083180554
          9   0.250000000  -0.000000000  -0.083180554
         10  -0.250000000   0.000000000  -0.083180554
         11   0.125000000   0.216506351  -0.083180554
         12  -0.125000000  -0.216506351   0.083180554

     Calculation of q =    0.1250000   0.2165064   0.2495417
     [opt_tetra]  Optimized tetrahedron method is used.
 
     Parallelization info
     --------------------
     sticks:   dense  smooth     PW     G-vecs:    dense   smooth      PW
     Min          57      57     18                 2405     2405     408
     Max          58      58     19                 2414     2414     411
     Sum        1159    1159    361                48237    48237    8171
 
     Using Slab Decomposition
 

     Title: 
      Electron-phonon for Th2H18                                                


     bravais-lattice index     =            4
     lattice parameter (alat)  =       7.2656  a.u.
     unit-cell volume          =     499.1617 (a.u.)^3
     number of atoms/cell      =           20
     number of atomic types    =            2
     number of electrons       =        26.00
     number of Kohn-Sham states=           17
     kinetic-energy cutoff     =      80.0000  Ry
     charge density cutoff     =     320.0000  Ry
     Exchange-correlation= PZ
                           (   1   1   0   0   0   0   0)

     celldm(1)=   7.265644  celldm(2)=   0.000000  celldm(3)=   1.502755
     celldm(4)=   0.000000  celldm(5)=   0.000000  celldm(6)=   0.000000

     crystal axes: (cart. coord. in units of alat)
               a(1) = (   1.000000   0.000000   0.000000 )  
               a(2) = (  -0.500000   0.866025   0.000000 )  
               a(3) = (   0.000000   0.000000   1.502755 )  

     reciprocal axes: (cart. coord. in units 2 pi/alat)
               b(1) = (  1.000000  0.577350  0.000000 )  
               b(2) = (  0.000000  1.154701  0.000000 )  
               b(3) = (  0.000000  0.000000  0.665444 )  


     PseudoPot. # 1 for H  read from file:
     ./H.UPF
     MD5 check sum: df8e43189db5a2d7f03d0dd74d71ce72
     Pseudo is Norm-conserving, Zval =  1.0
     Generated in analytical, separable form
     Using radial grid of  929 points,  0 beta functions with: 

     PseudoPot. # 2 for Th read from file:
     ./Th.UPF
     MD5 check sum: a439cebac19eeec3fe133fa10c950477
     Pseudo is Norm-conserving + core correction, Zval =  4.0
     Generated using "atomic" code by A. Dal Corso  v.5.0.99 svn rev. 10869
     Using radial grid of 1289 points,  3 beta functions with: 
                l(1) =   1
                l(2) =   2
                l(3) =   3

     atomic species   valence    mass     pseudopotential
        H              1.00     1.00794     H ( 1.00)
        Th             4.00   232.03806     Th( 1.00)

     24 Sym. Ops., with inversion, found



   Cartesian axes

     site n.     atom                  positions (alat units)
         1           Th  tau(   1) = (   0.5000000   0.2886751   1.1270663  )
         2           Th  tau(   2) = (   0.0000000   0.5773503   0.3756888  )
         3           H   tau(   3) = (   0.0000000   0.0000000   0.3756888  )
         4           H   tau(   4) = (   0.0000000   0.0000000   1.1270663  )
         5           H   tau(   5) = (   0.5000000   0.2886751   0.2365190  )
         6           H   tau(   6) = (   0.0000000   0.5773503   0.9878965  )
         7           H   tau(   7) = (  -0.0000000   0.5773503   1.2662361  )
         8           H   tau(   8) = (   0.5000000   0.2886751   0.5148586  )
         9           H   tau(   9) = (   0.5000000   0.6036057   0.0891906  )
        10           H   tau(  10) = (   0.2272622   0.1312099   0.0891906  )
        11           H   tau(  11) = (   0.7727378   0.1312099   0.0891906  )
        12           H   tau(  12) = (   0.0000000   0.2624197   0.8405681  )
        13           H   tau(  13) = (   0.2727378   0.7348155   0.8405681  )
        14           H   tau(  14) = (  -0.2727378   0.7348155   0.8405681  )
        15           H   tau(  15) = (   0.2727378   0.7348155   1.4135645  )
        16           H   tau(  16) = (   0.0000000   0.2624197   1.4135645  )
        17           H   tau(  17) = (  -0.2727378   0.7348155   1.4135645  )
        18           H   tau(  18) = (   0.2272622   0.1312099   0.6621869  )
        19           H   tau(  19) = (   0.5000000   0.6036057   0.6621869  )
        20           H   tau(  20) = (   0.7727378   0.1312099   0.6621869  )

     number of k points=  1872 (tetrahedron method)

     Number of k-points >= 100: set verbosity='high' to print them.

     Dense  grid:    48237 G-vectors     FFT dimensions: (  45,  45,  64)

     Estimated max dynamical RAM per process >       3.19 MB

     Estimated total dynamical RAM >      63.80 MB

     The potential is recalculated from file :
     ./_ph0/Th2H18.q_2/Th2H18.save/charge-density

     Starting wfcs are   50 atomic wfcs

     Band Structure Calculation
     Davidson diagonalization with overlap
     c_bands:  1 eigenvalues not converged
     c_bands:  1 eigenvalues not converged
     c_bands:  1 eigenvalues not converged
     c_bands:  1 eigenvalues not converged
     c_bands:  1 eigenvalues not converged
     c_bands:  1 eigenvalues not converged
     c_bands:  1 eigenvalues not converged
     c_bands:  1 eigenvalues not converged
     c_bands:  1 eigenvalues not converged
     c_bands:  1 eigenvalues not converged
     c_bands:  1 eigenvalues not converged
     c_bands:  1 eigenvalues not converged
     c_bands:  1 eigenvalues not converged
     c_bands:  1 eigenvalues not converged
     c_bands:  1 eigenvalues not converged
     c_bands:  1 eigenvalues not converged
     c_bands:  1 eigenvalues not converged
     c_bands:  1 eigenvalues not converged
     c_bands:  1 eigenvalues not converged
     c_bands:  1 eigenvalues not converged
     c_bands:  1 eigenvalues not converged
     c_bands:  2 eigenvalues not converged
     c_bands:  2 eigenvalues not converged
     c_bands:  1 eigenvalues not converged
     c_bands:  1 eigenvalues not converged
     c_bands:  1 eigenvalues not converged
     c_bands:  1 eigenvalues not converged
     c_bands:  1 eigenvalues not converged
     c_bands:  1 eigenvalues not converged
     c_bands:  1 eigenvalues not converged
     c_bands:  1 eigenvalues not converged
     c_bands:  1 eigenvalues not converged
     c_bands:  1 eigenvalues not converged
     c_bands:  1 eigenvalues not converged
     c_bands:  1 eigenvalues not converged
     c_bands:  1 eigenvalues not converged
     c_bands:  1 eigenvalues not converged
     c_bands:  1 eigenvalues not converged
     c_bands:  1 eigenvalues not converged
     c_bands:  1 eigenvalues not converged
     c_bands:  1 eigenvalues not converged
     c_bands:  1 eigenvalues not converged
     c_bands:  1 eigenvalues not converged
     c_bands:  1 eigenvalues not converged
     c_bands:  1 eigenvalues not converged
     c_bands:  1 eigenvalues not converged
     c_bands:  2 eigenvalues not converged
     c_bands:  1 eigenvalues not converged
     c_bands:  2 eigenvalues not converged
     c_bands:  1 eigenvalues not converged
     c_bands:  1 eigenvalues not converged
     c_bands:  1 eigenvalues not converged
     c_bands:  1 eigenvalues not converged
     c_bands:  1 eigenvalues not converged
     c_bands:  1 eigenvalues not converged
     c_bands:  1 eigenvalues not converged
     c_bands:  1 eigenvalues not converged
     c_bands:  1 eigenvalues not converged
     c_bands:  1 eigenvalues not converged
     c_bands:  1 eigenvalues not converged
     c_bands:  1 eigenvalues not converged
     c_bands:  1 eigenvalues not converged
     c_bands:  1 eigenvalues not converged
     c_bands:  1 eigenvalues not converged
     c_bands:  1 eigenvalues not converged
     c_bands:  1 eigenvalues not converged
     c_bands:  1 eigenvalues not converged
     c_bands:  1 eigenvalues not converged
     c_bands:  1 eigenvalues not converged
     c_bands:  1 eigenvalues not converged
     c_bands:  1 eigenvalues not converged
     c_bands:  1 eigenvalues not converged
     c_bands:  1 eigenvalues not converged
     c_bands:  1 eigenvalues not converged
     c_bands:  1 eigenvalues not converged
     c_bands:  1 eigenvalues not converged
     c_bands:  1 eigenvalues not converged
     c_bands:  1 eigenvalues not converged
     c_bands:  1 eigenvalues not converged
     c_bands:  1 eigenvalues not converged
     c_bands:  1 eigenvalues not converged
     c_bands:  1 eigenvalues not converged
     c_bands:  1 eigenvalues not converged
     c_bands:  1 eigenvalues not converged
     c_bands:  1 eigenvalues not converged
     c_bands:  1 eigenvalues not converged
     c_bands:  1 eigenvalues not converged
     c_bands:  1 eigenvalues not converged
     c_bands:  1 eigenvalues not converged
     c_bands:  1 eigenvalues not converged
     c_bands:  1 eigenvalues not converged
     c_bands:  1 eigenvalues not converged
     c_bands:  1 eigenvalues not converged
     c_bands:  1 eigenvalues not converged
     c_bands:  1 eigenvalues not converged
     c_bands:  1 eigenvalues not converged
     c_bands:  1 eigenvalues not converged
     c_bands:  1 eigenvalues not converged
     c_bands:  1 eigenvalues not converged
     c_bands:  1 eigenvalues not converged
     c_bands:  1 eigenvalues not converged
     c_bands:  1 eigenvalues not converged
     c_bands:  1 eigenvalues not converged
     c_bands:  1 eigenvalues not converged
     c_bands:  1 eigenvalues not converged
     c_bands:  1 eigenvalues not converged
     c_bands:  1 eigenvalues not converged
     c_bands:  1 eigenvalues not converged
     c_bands:  1 eigenvalues not converged
     c_bands:  1 eigenvalues not converged
     c_bands:  1 eigenvalues not converged
     c_bands:  1 eigenvalues not converged
     c_bands:  1 eigenvalues not converged
     c_bands:  1 eigenvalues not converged
     c_bands:  1 eigenvalues not converged
     c_bands:  1 eigenvalues not converged
     c_bands:  1 eigenvalues not converged
     c_bands:  1 eigenvalues not converged
     c_bands:  1 eigenvalues not converged
     c_bands:  1 eigenvalues not converged
     c_bands:  1 eigenvalues not converged
     c_bands:  1 eigenvalues not converged
     c_bands:  1 eigenvalues not converged
     c_bands:  1 eigenvalues not converged
     c_bands:  1 eigenvalues not converged
     c_bands:  1 eigenvalues not converged
     c_bands:  1 eigenvalues not converged
     c_bands:  1 eigenvalues not converged
     c_bands:  1 eigenvalues not converged
     c_bands:  1 eigenvalues not converged
     c_bands:  1 eigenvalues not converged
     c_bands:  1 eigenvalues not converged
     c_bands:  1 eigenvalues not converged
     c_bands:  1 eigenvalues not converged
     c_bands:  1 eigenvalues not converged
     c_bands:  1 eigenvalues not converged
     c_bands:  1 eigenvalues not converged
     c_bands:  1 eigenvalues not converged
     c_bands:  1 eigenvalues not converged
     c_bands:  1 eigenvalues not converged
     c_bands:  1 eigenvalues not converged
     c_bands:  1 eigenvalues not converged
     c_bands:  1 eigenvalues not converged
     c_bands:  1 eigenvalues not converged
     c_bands:  1 eigenvalues not converged
     c_bands:  1 eigenvalues not converged
     c_bands:  1 eigenvalues not converged
     c_bands:  1 eigenvalues not converged
     c_bands:  1 eigenvalues not converged
     c_bands:  1 eigenvalues not converged
     c_bands:  1 eigenvalues not converged
     c_bands:  1 eigenvalues not converged
     c_bands:  1 eigenvalues not converged
     c_bands:  1 eigenvalues not converged
     c_bands:  1 eigenvalues not converged
     c_bands:  1 eigenvalues not converged
     c_bands:  1 eigenvalues not converged
     c_bands:  1 eigenvalues not converged
     c_bands:  1 eigenvalues not converged
     c_bands:  1 eigenvalues not converged
     c_bands:  1 eigenvalues not converged
     c_bands:  1 eigenvalues not converged
     c_bands:  1 eigenvalues not converged
     c_bands:  1 eigenvalues not converged
     c_bands:  1 eigenvalues not converged
     c_bands:  1 eigenvalues not converged
     c_bands:  1 eigenvalues not converged
     c_bands:  1 eigenvalues not converged
     c_bands:  1 eigenvalues not converged
     c_bands:  1 eigenvalues not converged
     c_bands:  1 eigenvalues not converged
     c_bands:  1 eigenvalues not converged
     c_bands:  1 eigenvalues not converged
     c_bands:  1 eigenvalues not converged
     c_bands:  1 eigenvalues not converged
     c_bands:  1 eigenvalues not converged
     c_bands:  1 eigenvalues not converged
     c_bands:  1 eigenvalues not converged
     c_bands:  1 eigenvalues not converged
     c_bands:  1 eigenvalues not converged
     c_bands:  1 eigenvalues not converged
     c_bands:  1 eigenvalues not converged
     c_bands:  1 eigenvalues not converged
     c_bands:  1 eigenvalues not converged
     c_bands:  1 eigenvalues not converged
     c_bands:  1 eigenvalues not converged
     c_bands:  1 eigenvalues not converged
     c_bands:  1 eigenvalues not converged
     c_bands:  1 eigenvalues not converged
     c_bands:  1 eigenvalues not converged
     c_bands:  1 eigenvalues not converged
     c_bands:  1 eigenvalues not converged
     c_bands:  1 eigenvalues not converged
     c_bands:  1 eigenvalues not converged
     c_bands:  1 eigenvalues not converged
     c_bands:  1 eigenvalues not converged
     c_bands:  1 eigenvalues not converged
     c_bands:  1 eigenvalues not converged
     c_bands:  1 eigenvalues not converged
     c_bands:  1 eigenvalues not converged
     c_bands:  1 eigenvalues not converged
     c_bands:  1 eigenvalues not converged
     c_bands:  1 eigenvalues not converged
     c_bands:  1 eigenvalues not converged
     c_bands:  1 eigenvalues not converged
     c_bands:  1 eigenvalues not converged
     c_bands:  1 eigenvalues not converged
     c_bands:  1 eigenvalues not converged
     c_bands:  1 eigenvalues not converged
     c_bands:  1 eigenvalues not converged
     c_bands:  1 eigenvalues not converged
     c_bands:  1 eigenvalues not converged
     c_bands:  1 eigenvalues not converged
     c_bands:  1 eigenvalues not converged
     c_bands:  1 eigenvalues not converged
     c_bands:  1 eigenvalues not converged
     c_bands:  1 eigenvalues not converged
     c_bands:  1 eigenvalues not converged
     c_bands:  1 eigenvalues not converged
     c_bands:  1 eigenvalues not converged
     c_bands:  1 eigenvalues not converged
     c_bands:  1 eigenvalues not converged
     c_bands:  1 eigenvalues not converged
     c_bands:  1 eigenvalues not converged
     c_bands:  1 eigenvalues not converged
     c_bands:  1 eigenvalues not converged
     c_bands:  1 eigenvalues not converged
     c_bands:  1 eigenvalues not converged
     c_bands:  1 eigenvalues not converged
     c_bands:  1 eigenvalues not converged
     c_bands:  1 eigenvalues not converged
     c_bands:  1 eigenvalues not converged
     c_bands:  1 eigenvalues not converged
     c_bands:  1 eigenvalues not converged
     c_bands:  1 eigenvalues not converged
     c_bands:  1 eigenvalues not converged
     c_bands:  1 eigenvalues not converged
     c_bands:  1 eigenvalues not converged
     c_bands:  1 eigenvalues not converged
     c_bands:  1 eigenvalues not converged
     c_bands:  1 eigenvalues not converged
     c_bands:  1 eigenvalues not converged
     c_bands:  1 eigenvalues not converged
     c_bands:  1 eigenvalues not converged
     c_bands:  1 eigenvalues not converged
     c_bands:  1 eigenvalues not converged
     c_bands:  1 eigenvalues not converged
     c_bands:  1 eigenvalues not converged
     c_bands:  1 eigenvalues not converged
     c_bands:  1 eigenvalues not converged
     c_bands:  1 eigenvalues not converged
     c_bands:  1 eigenvalues not converged

     ethr =  3.85E-11,  avg # of iterations = 81.2

     total cpu time spent up to now is      871.2 secs

     End of band structure calculation

     Number of k-points >= 100: set verbosity='high' to print the bands.

     the Fermi energy is    10.9313 ev

     Writing config to output data dir ./_ph0/Th2H18.q_2/Th2H18.save/
 
     [dfpt_tetra]  Dos(E_F)[/Ry] :   0.1636004E+02

      Electron-phonon for Th2H18                                                

     bravais-lattice index     =            4
     lattice parameter (alat)  =       7.2656  a.u.
     unit-cell volume          =     499.1617 (a.u.)^3
     number of atoms/cell      =           20
     number of atomic types    =            2
     kinetic-energy cut-off    =      80.0000  Ry
     charge density cut-off    =     320.0000  Ry
     convergence threshold     =      1.0E-08
     beta                      =       0.7000
     number of iterations used =            4
     Exchange-correlation= PZ
                           (   1   1   0   0   0   0   0)


     celldm(1)=    7.26564  celldm(2)=    0.00000  celldm(3)=    1.50276
     celldm(4)=    0.00000  celldm(5)=    0.00000  celldm(6)=    0.00000

     crystal axes: (cart. coord. in units of alat)
               a(1) = (  1.0000  0.0000  0.0000 )  
               a(2) = ( -0.5000  0.8660  0.0000 )  
               a(3) = (  0.0000  0.0000  1.5028 )  

     reciprocal axes: (cart. coord. in units 2 pi/alat)
               b(1) = (  1.0000  0.5774  0.0000 )  
               b(2) = (  0.0000  1.1547  0.0000 )  
               b(3) = (  0.0000  0.0000  0.6654 )  


     Atoms inside the unit cell: 

     Cartesian axes

     site n.  atom      mass           positions (alat units)
        1     Th 232.0381   tau(    1) = (    0.50000    0.28868    1.12707  )
        2     Th 232.0381   tau(    2) = (    0.00000    0.57735    0.37569  )
        3     H    1.0079   tau(    3) = (    0.00000    0.00000    0.37569  )
        4     H    1.0079   tau(    4) = (    0.00000    0.00000    1.12707  )
        5     H    1.0079   tau(    5) = (    0.50000    0.28868    0.23652  )
        6     H    1.0079   tau(    6) = (    0.00000    0.57735    0.98790  )
        7     H    1.0079   tau(    7) = (   -0.00000    0.57735    1.26624  )
        8     H    1.0079   tau(    8) = (    0.50000    0.28868    0.51486  )
        9     H    1.0079   tau(    9) = (    0.50000    0.60361    0.08919  )
       10     H    1.0079   tau(   10) = (    0.22726    0.13121    0.08919  )
       11     H    1.0079   tau(   11) = (    0.77274    0.13121    0.08919  )
       12     H    1.0079   tau(   12) = (    0.00000    0.26242    0.84057  )
       13     H    1.0079   tau(   13) = (    0.27274    0.73482    0.84057  )
       14     H    1.0079   tau(   14) = (   -0.27274    0.73482    0.84057  )
       15     H    1.0079   tau(   15) = (    0.27274    0.73482    1.41356  )
       16     H    1.0079   tau(   16) = (    0.00000    0.26242    1.41356  )
       17     H    1.0079   tau(   17) = (   -0.27274    0.73482    1.41356  )
       18     H    1.0079   tau(   18) = (    0.22726    0.13121    0.66219  )
       19     H    1.0079   tau(   19) = (    0.50000    0.60361    0.66219  )
       20     H    1.0079   tau(   20) = (    0.77274    0.13121    0.66219  )

     Computing dynamical matrix for 
                    q = (   0.1250000   0.2165064   0.2495417 )
 
      2 Sym.Ops. (no q -> -q+G )


     G cutoff =  427.8963  (   2414 G-vectors)     FFT grid: ( 45, 45, 64)
     number of k points=  1872

     PseudoPot. # 1 for H  read from file:
     ./H.UPF
     MD5 check sum: df8e43189db5a2d7f03d0dd74d71ce72
     Pseudo is Norm-conserving, Zval =  1.0
     Generated in analytical, separable form
     Using radial grid of  929 points,  0 beta functions with: 

     PseudoPot. # 2 for Th read from file:
     ./Th.UPF
     MD5 check sum: a439cebac19eeec3fe133fa10c950477
     Pseudo is Norm-conserving + core correction, Zval =  4.0
     Generated using "atomic" code by A. Dal Corso  v.5.0.99 svn rev. 10869
     Using radial grid of 1289 points,  3 beta functions with: 
                l(1) =   1
                l(2) =   2
                l(3) =   3

     Mode symmetry, C_s (m)     point group:


     Atomic displacements:
     There are   60 irreducible representations

     Representation     1      1 modes -  To be done

     Representation     2      1 modes -  To be done

     Representation     3      1 modes -  To be done

     Representation     4      1 modes -  To be done

     Representation     5      1 modes -  To be done

     Representation     6      1 modes -  To be done

     Representation     7      1 modes -  To be done

     Representation     8      1 modes -  To be done

     Representation     9      1 modes -  To be done

     Representation    10      1 modes -  To be done

     Representation    11      1 modes -  To be done

     Representation    12      1 modes -  To be done

     Representation    13      1 modes -  To be done

     Representation    14      1 modes -  To be done

     Representation    15      1 modes -  To be done

     Representation    16      1 modes -  To be done

     Representation    17      1 modes -  To be done

     Representation    18      1 modes -  To be done

     Representation    19      1 modes -  To be done

     Representation    20      1 modes -  To be done

     Representation    21      1 modes -  To be done

     Representation    22      1 modes -  To be done

     Representation    23      1 modes -  To be done

     Representation    24      1 modes -  To be done

     Representation    25      1 modes -  To be done

     Representation    26      1 modes -  To be done

     Representation    27      1 modes -  To be done

     Representation    28      1 modes -  To be done

     Representation    29      1 modes -  To be done

     Representation    30      1 modes -  To be done

     Representation    31      1 modes -  To be done

     Representation    32      1 modes -  To be done

     Representation    33      1 modes -  To be done

     Representation    34      1 modes -  To be done

     Representation    35      1 modes -  To be done

     Representation    36      1 modes -  To be done

     Representation    37      1 modes -  To be done

     Representation    38      1 modes -  To be done

     Representation    39      1 modes -  To be done

     Representation    40      1 modes -  To be done

     Representation    41      1 modes -  To be done

     Representation    42      1 modes -  To be done

     Representation    43      1 modes -  To be done

     Representation    44      1 modes -  To be done

     Representation    45      1 modes -  To be done

     Representation    46      1 modes -  To be done

     Representation    47      1 modes -  To be done

     Representation    48      1 modes -  To be done

     Representation    49      1 modes -  To be done

     Representation    50      1 modes -  To be done

     Representation    51      1 modes -  To be done

     Representation    52      1 modes -  To be done

     Representation    53      1 modes -  To be done

     Representation    54      1 modes -  To be done

     Representation    55      1 modes -  To be done

     Representation    56      1 modes -  To be done

     Representation    57      1 modes -  To be done

     Representation    58      1 modes -  To be done

     Representation    59      1 modes -  To be done

     Representation    60      1 modes -  To be done


     PHONON       :  18m15.38s CPU  19m 6.67s WALL

     Reading dVscf from file dv
     Reading dynamics matrix from file Th2H18.dyn2

     Diagonalizing the dynamical matrix

     q = (    0.125000000   0.216506351   0.249541662 ) 

 **************************************************************************
     freq (    1) =     -24.012288 [THz] =    -800.963722 [cm-1]
     freq (    2) =      -5.623894 [THz] =    -187.592923 [cm-1]
     freq (    3) =       3.642177 [THz] =     121.489957 [cm-1]
     freq (    4) =       3.741459 [THz] =     124.801641 [cm-1]
     freq (    5) =       3.984542 [THz] =     132.910010 [cm-1]
     freq (    6) =       4.483363 [THz] =     149.548902 [cm-1]
     freq (    7) =       4.798406 [THz] =     160.057608 [cm-1]
     freq (    8) =       6.723641 [THz] =     224.276532 [cm-1]
     freq (    9) =      15.472255 [THz] =     516.098875 [cm-1]
     freq (   10) =      15.935784 [THz] =     531.560551 [cm-1]
     freq (   11) =      18.690251 [THz] =     623.439653 [cm-1]
     freq (   12) =      19.718165 [THz] =     657.727187 [cm-1]
     freq (   13) =      20.719646 [THz] =     691.132985 [cm-1]
     freq (   14) =      20.828515 [THz] =     694.764489 [cm-1]
     freq (   15) =      23.607304 [THz] =     787.454904 [cm-1]
     freq (   16) =      23.681060 [THz] =     789.915151 [cm-1]
     freq (   17) =      26.431136 [THz] =     881.647809 [cm-1]
     freq (   18) =      27.415529 [THz] =     914.483606 [cm-1]
     freq (   19) =      27.722212 [THz] =     924.713444 [cm-1]
     freq (   20) =      28.335024 [THz] =     945.154658 [cm-1]
     freq (   21) =      29.297949 [THz] =     977.274388 [cm-1]
     freq (   22) =      29.670300 [THz] =     989.694665 [cm-1]
     freq (   23) =      29.807743 [THz] =     994.279291 [cm-1]
     freq (   24) =      30.282410 [THz] =    1010.112461 [cm-1]
     freq (   25) =      30.752584 [THz] =    1025.795790 [cm-1]
     freq (   26) =      31.448824 [THz] =    1049.019865 [cm-1]
     freq (   27) =      32.229633 [THz] =    1075.064850 [cm-1]
     freq (   28) =      33.164291 [THz] =    1106.241688 [cm-1]
     freq (   29) =      33.279791 [THz] =    1110.094341 [cm-1]
     freq (   30) =      34.284637 [THz] =    1143.612408 [cm-1]
     freq (   31) =      35.303661 [THz] =    1177.603375 [cm-1]
     freq (   32) =      35.471671 [THz] =    1183.207580 [cm-1]
     freq (   33) =      36.284501 [THz] =    1210.320673 [cm-1]
     freq (   34) =      36.808361 [THz] =    1227.794764 [cm-1]
     freq (   35) =      37.300687 [THz] =    1244.217004 [cm-1]
     freq (   36) =      37.674014 [THz] =    1256.669825 [cm-1]
     freq (   37) =      38.744939 [THz] =    1292.392057 [cm-1]
     freq (   38) =      39.777325 [THz] =    1326.828755 [cm-1]
     freq (   39) =      40.919991 [THz] =    1364.943980 [cm-1]
     freq (   40) =      41.167517 [THz] =    1373.200552 [cm-1]
     freq (   41) =      41.390593 [THz] =    1380.641584 [cm-1]
     freq (   42) =      42.059136 [THz] =    1402.941754 [cm-1]
     freq (   43) =      42.357830 [THz] =    1412.905135 [cm-1]
     freq (   44) =      42.397498 [THz] =    1414.228307 [cm-1]
     freq (   45) =      43.226663 [THz] =    1441.886286 [cm-1]
     freq (   46) =      43.789812 [THz] =    1460.670913 [cm-1]
     freq (   47) =      44.658760 [THz] =    1489.655881 [cm-1]
     freq (   48) =      44.865225 [THz] =    1496.542827 [cm-1]
     freq (   49) =      47.390206 [THz] =    1580.767130 [cm-1]
     freq (   50) =      47.560672 [THz] =    1586.453247 [cm-1]
     freq (   51) =      50.135423 [THz] =    1672.337691 [cm-1]
     freq (   52) =      50.790695 [THz] =    1694.195219 [cm-1]
     freq (   53) =      53.049377 [THz] =    1769.536743 [cm-1]
     freq (   54) =      55.691724 [THz] =    1857.675947 [cm-1]
     freq (   55) =      60.785286 [THz] =    2027.578893 [cm-1]
     freq (   56) =      61.404819 [THz] =    2048.244285 [cm-1]
     freq (   57) =      66.994941 [THz] =    2234.710671 [cm-1]
     freq (   58) =      69.744323 [THz] =    2326.420213 [cm-1]
     freq (   59) =      73.920319 [THz] =    2465.716424 [cm-1]
     freq (   60) =      75.308431 [THz] =    2512.018862 [cm-1]
 **************************************************************************

     [elph_tetra]   Lowest band which contains FS :         12
     [elph_tetra]  Highest band which contains FS :         15
     [elph_tetra]    # of bands which contains FS :          4
 
     Tetrahedron method
     DOS =  8.180019 states/spin/Ry/Unit Cell at Ef= 10.931316 eV
     double delta at Ef =131.876009
     lambda(    1)=  0.0000   gamma=    0.00 GHz
     lambda(    2)=  0.0000   gamma=    0.00 GHz
     lambda(    3)=  0.0391   gamma=    4.05 GHz
     lambda(    4)=  0.0392   gamma=    4.28 GHz
     lambda(    5)=  0.0512   gamma=    6.35 GHz
     lambda(    6)=  0.0351   gamma=    5.51 GHz
     lambda(    7)=  0.0435   gamma=    7.82 GHz
     lambda(    8)=  0.0869   gamma=   30.69 GHz
     lambda(    9)=  0.2032   gamma=  380.04 GHz
     lambda(   10)=  0.1090   gamma=  216.18 GHz
     lambda(   11)=  0.0524   gamma=  143.00 GHz
     lambda(   12)=  0.0859   gamma=  260.89 GHz
     lambda(   13)=  0.0742   gamma=  248.91 GHz
     lambda(   14)=  0.0673   gamma=  228.10 GHz
     lambda(   15)=  0.0244   gamma=  106.42 GHz
     lambda(   16)=  0.0541   gamma=  236.80 GHz
     lambda(   17)=  0.0382   gamma=  208.53 GHz
     lambda(   18)=  0.0154   gamma=   90.19 GHz
     lambda(   19)=  0.0395   gamma=  236.87 GHz
     lambda(   20)=  0.0240   gamma=  150.26 GHz
     lambda(   21)=  0.0492   gamma=  329.81 GHz
     lambda(   22)=  0.0158   gamma=  108.38 GHz
     lambda(   23)=  0.0155   gamma=  107.73 GHz
     lambda(   24)=  0.0164   gamma=  117.73 GHz
     lambda(   25)=  0.0189   gamma=  139.29 GHz
     lambda(   26)=  0.0207   gamma=  159.61 GHz
     lambda(   27)=  0.0137   gamma=  111.51 GHz
     lambda(   28)=  0.0166   gamma=  143.00 GHz
     lambda(   29)=  0.0096   gamma=   83.23 GHz
     lambda(   30)=  0.0194   gamma=  178.18 GHz
     lambda(   31)=  0.0063   gamma=   61.36 GHz
     lambda(   32)=  0.0100   gamma=   98.66 GHz
     lambda(   33)=  0.0077   gamma=   79.03 GHz
     lambda(   34)=  0.0066   gamma=   70.31 GHz
     lambda(   35)=  0.0059   gamma=   64.41 GHz
     lambda(   36)=  0.0065   gamma=   72.40 GHz
     lambda(   37)=  0.0047   gamma=   55.28 GHz
     lambda(   38)=  0.0031   gamma=   38.15 GHz
     lambda(   39)=  0.0036   gamma=   46.80 GHz
     lambda(   40)=  0.0043   gamma=   56.61 GHz
     lambda(   41)=  0.0057   gamma=   76.04 GHz
     lambda(   42)=  0.0059   gamma=   80.89 GHz
     lambda(   43)=  0.0064   gamma=   89.77 GHz
     lambda(   44)=  0.0143   gamma=  201.10 GHz
     lambda(   45)=  0.0058   gamma=   85.03 GHz
     lambda(   46)=  0.0112   gamma=  168.34 GHz
     lambda(   47)=  0.0077   gamma=  120.61 GHz
     lambda(   48)=  0.0053   gamma=   83.30 GHz
     lambda(   49)=  0.0126   gamma=  220.31 GHz
     lambda(   50)=  0.0064   gamma=  112.33 GHz
     lambda(   51)=  0.0048   gamma=   95.12 GHz
     lambda(   52)=  0.0033   gamma=   66.52 GHz
     lambda(   53)=  0.0039   gamma=   86.42 GHz
     lambda(   54)=  0.0066   gamma=  159.26 GHz
     lambda(   55)=  0.0040   gamma=  114.15 GHz
     lambda(   56)=  0.0062   gamma=  182.18 GHz
     lambda(   57)=  0.0039   gamma=  137.85 GHz
     lambda(   58)=  0.0027   gamma=  101.66 GHz
     lambda(   59)=  0.0010   gamma=   43.26 GHz
     lambda(   60)=  0.0012   gamma=   54.06 GHz
 
     Number of q in the star =   12
     List of q in the star:
          1   0.125000000   0.216506351   0.249541662
          2  -0.125000000   0.216506351  -0.249541662
          3   0.125000000  -0.216506351  -0.249541662
          4  -0.125000000   0.216506351   0.249541662
          5   0.250000000   0.000000000   0.249541662
          6  -0.250000000   0.000000000   0.249541662
          7   0.125000000  -0.216506351   0.249541662
          8  -0.125000000  -0.216506351  -0.249541662
          9   0.250000000  -0.000000000  -0.249541662
         10  -0.250000000   0.000000000  -0.249541662
         11   0.125000000   0.216506351  -0.249541662
         12  -0.125000000  -0.216506351   0.249541662

     Calculation of q =    0.1250000   0.5051815   0.0831806
     [opt_tetra]  Optimized tetrahedron method is used.
 
     Parallelization info
     --------------------
     sticks:   dense  smooth     PW     G-vecs:    dense   smooth      PW
     Min          57      57     18                 2405     2405     424
     Max          58      58     19                 2414     2414     431
     Sum        1159    1159    367                48237    48237    8513
 
     Using Slab Decomposition
 

     Title: 
      Electron-phonon for Th2H18                                                


     bravais-lattice index     =            4
     lattice parameter (alat)  =       7.2656  a.u.
     unit-cell volume          =     499.1617 (a.u.)^3
     number of atoms/cell      =           20
     number of atomic types    =            2
     number of electrons       =        26.00
     number of Kohn-Sham states=           17
     kinetic-energy cutoff     =      80.0000  Ry
     charge density cutoff     =     320.0000  Ry
     Exchange-correlation= PZ
                           (   1   1   0   0   0   0   0)

     celldm(1)=   7.265644  celldm(2)=   0.000000  celldm(3)=   1.502755
     celldm(4)=   0.000000  celldm(5)=   0.000000  celldm(6)=   0.000000

     crystal axes: (cart. coord. in units of alat)
               a(1) = (   1.000000   0.000000   0.000000 )  
               a(2) = (  -0.500000   0.866025   0.000000 )  
               a(3) = (   0.000000   0.000000   1.502755 )  

     reciprocal axes: (cart. coord. in units 2 pi/alat)
               b(1) = (  1.000000  0.577350  0.000000 )  
               b(2) = (  0.000000  1.154701  0.000000 )  
               b(3) = (  0.000000  0.000000  0.665444 )  


     PseudoPot. # 1 for H  read from file:
     ./H.UPF
     MD5 check sum: df8e43189db5a2d7f03d0dd74d71ce72
     Pseudo is Norm-conserving, Zval =  1.0
     Generated in analytical, separable form
     Using radial grid of  929 points,  0 beta functions with: 

     PseudoPot. # 2 for Th read from file:
     ./Th.UPF
     MD5 check sum: a439cebac19eeec3fe133fa10c950477
     Pseudo is Norm-conserving + core correction, Zval =  4.0
     Generated using "atomic" code by A. Dal Corso  v.5.0.99 svn rev. 10869
     Using radial grid of 1289 points,  3 beta functions with: 
                l(1) =   1
                l(2) =   2
                l(3) =   3

     atomic species   valence    mass     pseudopotential
        H              1.00     1.00794     H ( 1.00)
        Th             4.00   232.03806     Th( 1.00)

     24 Sym. Ops., with inversion, found



   Cartesian axes

     site n.     atom                  positions (alat units)
         1           Th  tau(   1) = (   0.5000000   0.2886751   1.1270663  )
         2           Th  tau(   2) = (   0.0000000   0.5773503   0.3756888  )
         3           H   tau(   3) = (   0.0000000   0.0000000   0.3756888  )
         4           H   tau(   4) = (   0.0000000   0.0000000   1.1270663  )
         5           H   tau(   5) = (   0.5000000   0.2886751   0.2365190  )
         6           H   tau(   6) = (   0.0000000   0.5773503   0.9878965  )
         7           H   tau(   7) = (  -0.0000000   0.5773503   1.2662361  )
         8           H   tau(   8) = (   0.5000000   0.2886751   0.5148586  )
         9           H   tau(   9) = (   0.5000000   0.6036057   0.0891906  )
        10           H   tau(  10) = (   0.2272622   0.1312099   0.0891906  )
        11           H   tau(  11) = (   0.7727378   0.1312099   0.0891906  )
        12           H   tau(  12) = (   0.0000000   0.2624197   0.8405681  )
        13           H   tau(  13) = (   0.2727378   0.7348155   0.8405681  )
        14           H   tau(  14) = (  -0.2727378   0.7348155   0.8405681  )
        15           H   tau(  15) = (   0.2727378   0.7348155   1.4135645  )
        16           H   tau(  16) = (   0.0000000   0.2624197   1.4135645  )
        17           H   tau(  17) = (  -0.2727378   0.7348155   1.4135645  )
        18           H   tau(  18) = (   0.2272622   0.1312099   0.6621869  )
        19           H   tau(  19) = (   0.5000000   0.6036057   0.6621869  )
        20           H   tau(  20) = (   0.7727378   0.1312099   0.6621869  )

     number of k points=  3456 (tetrahedron method)

     Number of k-points >= 100: set verbosity='high' to print them.

     Dense  grid:    48237 G-vectors     FFT dimensions: (  45,  45,  64)

     Estimated max dynamical RAM per process >       3.20 MB

     Estimated total dynamical RAM >      63.99 MB

     The potential is recalculated from file :
     ./_ph0/Th2H18.q_3/Th2H18.save/charge-density

     Starting wfcs are   50 atomic wfcs

     Band Structure Calculation
     Davidson diagonalization with overlap
     c_bands:  1 eigenvalues not converged
     c_bands:  1 eigenvalues not converged
     c_bands:  1 eigenvalues not converged
     c_bands:  1 eigenvalues not converged
     c_bands:  1 eigenvalues not converged
     c_bands:  1 eigenvalues not converged
     c_bands:  1 eigenvalues not converged
     c_bands:  1 eigenvalues not converged
     c_bands:  1 eigenvalues not converged
     c_bands:  1 eigenvalues not converged
     c_bands:  1 eigenvalues not converged
     c_bands:  1 eigenvalues not converged
     c_bands:  1 eigenvalues not converged
     c_bands:  1 eigenvalues not converged
     c_bands:  1 eigenvalues not converged
     c_bands:  1 eigenvalues not converged
     c_bands:  1 eigenvalues not converged
     c_bands:  1 eigenvalues not converged
     c_bands:  1 eigenvalues not converged
     c_bands:  1 eigenvalues not converged
     c_bands:  1 eigenvalues not converged
     c_bands:  1 eigenvalues not converged
     c_bands:  1 eigenvalues not converged
     c_bands:  1 eigenvalues not converged
     c_bands:  1 eigenvalues not converged
     c_bands:  1 eigenvalues not converged
     c_bands:  1 eigenvalues not converged
     c_bands:  1 eigenvalues not converged
     c_bands:  1 eigenvalues not converged
     c_bands:  1 eigenvalues not converged
     c_bands:  1 eigenvalues not converged
     c_bands:  1 eigenvalues not converged
     c_bands:  1 eigenvalues not converged
     c_bands:  1 eigenvalues not converged
     c_bands:  1 eigenvalues not converged
     c_bands:  1 eigenvalues not converged
     c_bands:  1 eigenvalues not converged
     c_bands:  1 eigenvalues not converged
     c_bands:  1 eigenvalues not converged
     c_bands:  1 eigenvalues not converged
     c_bands:  1 eigenvalues not converged
     c_bands:  1 eigenvalues not converged
     c_bands:  1 eigenvalues not converged
     c_bands:  1 eigenvalues not converged
     c_bands:  1 eigenvalues not converged
     c_bands:  1 eigenvalues not converged
     c_bands:  1 eigenvalues not converged
     c_bands:  1 eigenvalues not converged
     c_bands:  1 eigenvalues not converged
     c_bands:  1 eigenvalues not converged
     c_bands:  1 eigenvalues not converged
     c_bands:  1 eigenvalues not converged
     c_bands:  1 eigenvalues not converged
     c_bands:  1 eigenvalues not converged
     c_bands:  1 eigenvalues not converged
     c_bands:  1 eigenvalues not converged
     c_bands:  1 eigenvalues not converged
     c_bands:  1 eigenvalues not converged
     c_bands:  1 eigenvalues not converged
     c_bands:  1 eigenvalues not converged
     c_bands:  1 eigenvalues not converged
     c_bands:  1 eigenvalues not converged
     c_bands:  1 eigenvalues not converged
     c_bands:  1 eigenvalues not converged
     c_bands:  1 eigenvalues not converged
     c_bands:  1 eigenvalues not converged
     c_bands:  1 eigenvalues not converged
     c_bands:  1 eigenvalues not converged
     c_bands:  1 eigenvalues not converged
     c_bands:  1 eigenvalues not converged
     c_bands:  1 eigenvalues not converged
     c_bands:  1 eigenvalues not converged
     c_bands:  1 eigenvalues not converged
     c_bands:  1 eigenvalues not converged
     c_bands:  1 eigenvalues not converged
     c_bands:  1 eigenvalues not converged
     c_bands:  1 eigenvalues not converged
     c_bands:  1 eigenvalues not converged
     c_bands:  1 eigenvalues not converged
     c_bands:  1 eigenvalues not converged
     c_bands:  1 eigenvalues not converged
     c_bands:  1 eigenvalues not converged
     c_bands:  1 eigenvalues not converged
     c_bands:  1 eigenvalues not converged
     c_bands:  1 eigenvalues not converged
     c_bands:  1 eigenvalues not converged
     c_bands:  1 eigenvalues not converged
     c_bands:  1 eigenvalues not converged
     c_bands:  1 eigenvalues not converged
     c_bands:  1 eigenvalues not converged
     c_bands:  1 eigenvalues not converged
     c_bands:  1 eigenvalues not converged
     c_bands:  1 eigenvalues not converged
     c_bands:  1 eigenvalues not converged
     c_bands:  1 eigenvalues not converged
     c_bands:  1 eigenvalues not converged
     c_bands:  1 eigenvalues not converged
     c_bands:  1 eigenvalues not converged
     c_bands:  1 eigenvalues not converged
     c_bands:  1 eigenvalues not converged
     c_bands:  1 eigenvalues not converged
     c_bands:  1 eigenvalues not converged
     c_bands:  1 eigenvalues not converged
     c_bands:  1 eigenvalues not converged
     c_bands:  1 eigenvalues not converged
     c_bands:  1 eigenvalues not converged
     c_bands:  1 eigenvalues not converged
     c_bands:  1 eigenvalues not converged
     c_bands:  1 eigenvalues not converged
     c_bands:  1 eigenvalues not converged
     c_bands:  1 eigenvalues not converged
     c_bands:  1 eigenvalues not converged
     c_bands:  1 eigenvalues not converged
     c_bands:  1 eigenvalues not converged
     c_bands:  1 eigenvalues not converged
     c_bands:  1 eigenvalues not converged
     c_bands:  1 eigenvalues not converged
     c_bands:  1 eigenvalues not converged
     c_bands:  1 eigenvalues not converged
     c_bands:  1 eigenvalues not converged
     c_bands:  1 eigenvalues not converged
     c_bands:  1 eigenvalues not converged
     c_bands:  1 eigenvalues not converged
     c_bands:  1 eigenvalues not converged
     c_bands:  1 eigenvalues not converged
     c_bands:  1 eigenvalues not converged
     c_bands:  2 eigenvalues not converged
     c_bands:  1 eigenvalues not converged
     c_bands:  1 eigenvalues not converged
     c_bands:  1 eigenvalues not converged
     c_bands:  1 eigenvalues not converged
     c_bands:  1 eigenvalues not converged
     c_bands:  1 eigenvalues not converged
     c_bands:  1 eigenvalues not converged
     c_bands:  1 eigenvalues not converged
     c_bands:  1 eigenvalues not converged
     c_bands:  2 eigenvalues not converged
     c_bands:  1 eigenvalues not converged
     c_bands:  1 eigenvalues not converged
     c_bands:  1 eigenvalues not converged
     c_bands:  1 eigenvalues not converged
     c_bands:  1 eigenvalues not converged
     c_bands:  1 eigenvalues not converged
     c_bands:  1 eigenvalues not converged
     c_bands:  1 eigenvalues not converged
     c_bands:  1 eigenvalues not converged
     c_bands:  1 eigenvalues not converged
     c_bands:  1 eigenvalues not converged
     c_bands:  1 eigenvalues not converged
     c_bands:  2 eigenvalues not converged
     c_bands:  1 eigenvalues not converged
     c_bands:  1 eigenvalues not converged
     c_bands:  1 eigenvalues not converged
     c_bands:  1 eigenvalues not converged
     c_bands:  1 eigenvalues not converged
     c_bands:  1 eigenvalues not converged
     c_bands:  1 eigenvalues not converged
     c_bands:  1 eigenvalues not converged
     c_bands:  1 eigenvalues not converged
     c_bands:  1 eigenvalues not converged
     c_bands:  1 eigenvalues not converged
     c_bands:  1 eigenvalues not converged
     c_bands:  1 eigenvalues not converged
     c_bands:  1 eigenvalues not converged
     c_bands:  1 eigenvalues not converged
     c_bands:  1 eigenvalues not converged
     c_bands:  1 eigenvalues not converged
     c_bands:  1 eigenvalues not converged
     c_bands:  1 eigenvalues not converged
     c_bands:  1 eigenvalues not converged
     c_bands:  1 eigenvalues not converged
     c_bands:  1 eigenvalues not converged
     c_bands:  1 eigenvalues not converged
     c_bands:  1 eigenvalues not converged
     c_bands:  1 eigenvalues not converged
     c_bands:  1 eigenvalues not converged
     c_bands:  1 eigenvalues not converged
     c_bands:  1 eigenvalues not converged
     c_bands:  1 eigenvalues not converged
     c_bands:  1 eigenvalues not converged
     c_bands:  1 eigenvalues not converged
     c_bands:  1 eigenvalues not converged
     c_bands:  1 eigenvalues not converged
     c_bands:  2 eigenvalues not converged
     c_bands:  1 eigenvalues not converged
     c_bands:  1 eigenvalues not converged
     c_bands:  1 eigenvalues not converged
     c_bands:  1 eigenvalues not converged
     c_bands:  1 eigenvalues not converged
     c_bands:  1 eigenvalues not converged
     c_bands:  1 eigenvalues not converged
     c_bands:  1 eigenvalues not converged
     c_bands:  1 eigenvalues not converged
     c_bands:  1 eigenvalues not converged
     c_bands:  1 eigenvalues not converged
     c_bands:  1 eigenvalues not converged
     c_bands:  1 eigenvalues not converged
     c_bands:  1 eigenvalues not converged
     c_bands:  1 eigenvalues not converged
     c_bands:  1 eigenvalues not converged
     c_bands:  1 eigenvalues not converged
     c_bands:  1 eigenvalues not converged
     c_bands:  1 eigenvalues not converged
     c_bands:  1 eigenvalues not converged
     c_bands:  1 eigenvalues not converged
     c_bands:  1 eigenvalues not converged
     c_bands:  1 eigenvalues not converged
     c_bands:  1 eigenvalues not converged
     c_bands:  1 eigenvalues not converged
     c_bands:  1 eigenvalues not converged
     c_bands:  1 eigenvalues not converged
     c_bands:  1 eigenvalues not converged
     c_bands:  1 eigenvalues not converged
     c_bands:  1 eigenvalues not converged
     c_bands:  1 eigenvalues not converged
     c_bands:  1 eigenvalues not converged
     c_bands:  1 eigenvalues not converged
     c_bands:  1 eigenvalues not converged
     c_bands:  1 eigenvalues not converged
     c_bands:  1 eigenvalues not converged
     c_bands:  1 eigenvalues not converged
     c_bands:  1 eigenvalues not converged
     c_bands:  1 eigenvalues not converged
     c_bands:  1 eigenvalues not converged
[...]
     c_bands:  1 eigenvalues not converged
     c_bands:  1 eigenvalues not converged
     c_bands:  1 eigenvalues not converged
     c_bands:  1 eigenvalues not converged
     c_bands:  1 eigenvalues not converged
     c_bands:  1 eigenvalues not converged
     c_bands:  1 eigenvalues not converged
     c_bands:  1 eigenvalues not converged
     c_bands:  1 eigenvalues not converged
     c_bands:  1 eigenvalues not converged
     c_bands:  1 eigenvalues not converged
     c_bands:  1 eigenvalues not converged
     c_bands:  1 eigenvalues not converged
     c_bands:  1 eigenvalues not converged

     ethr =  3.85E-11,  avg # of iterations = 80.8

     total cpu time spent up to now is     6826.1 secs

     End of band structure calculation

     Number of k-points >= 100: set verbosity='high' to print the bands.

     the Fermi energy is    10.9313 ev

     Writing config to output data dir ./_ph0/Th2H18.q_12/Th2H18.save/
 
     [dfpt_tetra]  Dos(E_F)[/Ry] :   0.1636004E+02

      Electron-phonon for Th2H18                                                

     bravais-lattice index     =            4
     lattice parameter (alat)  =       7.2656  a.u.
     unit-cell volume          =     499.1617 (a.u.)^3
     number of atoms/cell      =           20
     number of atomic types    =            2
     kinetic-energy cut-off    =      80.0000  Ry
     charge density cut-off    =     320.0000  Ry
     convergence threshold     =      1.0E-08
     beta                      =       0.7000
     number of iterations used =            4
     Exchange-correlation= PZ
                           (   1   1   0   0   0   0   0)


     celldm(1)=    7.26564  celldm(2)=    0.00000  celldm(3)=    1.50276
     celldm(4)=    0.00000  celldm(5)=    0.00000  celldm(6)=    0.00000

     crystal axes: (cart. coord. in units of alat)
               a(1) = (  1.0000  0.0000  0.0000 )  
               a(2) = ( -0.5000  0.8660  0.0000 )  
               a(3) = (  0.0000  0.0000  1.5028 )  

     reciprocal axes: (cart. coord. in units 2 pi/alat)
               b(1) = (  1.0000  0.5774  0.0000 )  
               b(2) = (  0.0000  1.1547  0.0000 )  
               b(3) = (  0.0000  0.0000  0.6654 )  


     Atoms inside the unit cell: 

     Cartesian axes

     site n.  atom      mass           positions (alat units)
        1     Th 232.0381   tau(    1) = (    0.50000    0.28868    1.12707  )
        2     Th 232.0381   tau(    2) = (    0.00000    0.57735    0.37569  )
        3     H    1.0079   tau(    3) = (    0.00000    0.00000    0.37569  )
        4     H    1.0079   tau(    4) = (    0.00000    0.00000    1.12707  )
        5     H    1.0079   tau(    5) = (    0.50000    0.28868    0.23652  )
        6     H    1.0079   tau(    6) = (    0.00000    0.57735    0.98790  )
        7     H    1.0079   tau(    7) = (   -0.00000    0.57735    1.26624  )
        8     H    1.0079   tau(    8) = (    0.50000    0.28868    0.51486  )
        9     H    1.0079   tau(    9) = (    0.50000    0.60361    0.08919  )
       10     H    1.0079   tau(   10) = (    0.22726    0.13121    0.08919  )
       11     H    1.0079   tau(   11) = (    0.77274    0.13121    0.08919  )
       12     H    1.0079   tau(   12) = (    0.00000    0.26242    0.84057  )
       13     H    1.0079   tau(   13) = (    0.27274    0.73482    0.84057  )
       14     H    1.0079   tau(   14) = (   -0.27274    0.73482    0.84057  )
       15     H    1.0079   tau(   15) = (    0.27274    0.73482    1.41356  )
       16     H    1.0079   tau(   16) = (    0.00000    0.26242    1.41356  )
       17     H    1.0079   tau(   17) = (   -0.27274    0.73482    1.41356  )
       18     H    1.0079   tau(   18) = (    0.22726    0.13121    0.66219  )
       19     H    1.0079   tau(   19) = (    0.50000    0.60361    0.66219  )
       20     H    1.0079   tau(   20) = (    0.77274    0.13121    0.66219  )

     Computing dynamical matrix for 
                    q = (   0.3750000  -0.2165064   0.2495417 )
 
      2 Sym.Ops. (no q -> -q+G )


     G cutoff =  427.8963  (   2414 G-vectors)     FFT grid: ( 45, 45, 64)
     number of k points=  1872

     PseudoPot. # 1 for H  read from file:
     ./H.UPF
     MD5 check sum: df8e43189db5a2d7f03d0dd74d71ce72
     Pseudo is Norm-conserving, Zval =  1.0
     Generated in analytical, separable form
     Using radial grid of  929 points,  0 beta functions with: 

     PseudoPot. # 2 for Th read from file:
     ./Th.UPF
     MD5 check sum: a439cebac19eeec3fe133fa10c950477
     Pseudo is Norm-conserving + core correction, Zval =  4.0
     Generated using "atomic" code by A. Dal Corso  v.5.0.99 svn rev. 10869
     Using radial grid of 1289 points,  3 beta functions with: 
                l(1) =   1
                l(2) =   2
                l(3) =   3

     Mode symmetry, C_s (m)     point group:


     Atomic displacements:
     There are   60 irreducible representations

     Representation     1      1 modes -  To be done

     Representation     2      1 modes -  To be done

     Representation     3      1 modes -  To be done

     Representation     4      1 modes -  To be done

     Representation     5      1 modes -  To be done

     Representation     6      1 modes -  To be done

     Representation     7      1 modes -  To be done

     Representation     8      1 modes -  To be done

     Representation     9      1 modes -  To be done

     Representation    10      1 modes -  To be done

     Representation    11      1 modes -  To be done

     Representation    12      1 modes -  To be done

     Representation    13      1 modes -  To be done

     Representation    14      1 modes -  To be done

     Representation    15      1 modes -  To be done

     Representation    16      1 modes -  To be done

     Representation    17      1 modes -  To be done

     Representation    18      1 modes -  To be done

     Representation    19      1 modes -  To be done

     Representation    20      1 modes -  To be done

     Representation    21      1 modes -  To be done

     Representation    22      1 modes -  To be done

     Representation    23      1 modes -  To be done

     Representation    24      1 modes -  To be done

     Representation    25      1 modes -  To be done

     Representation    26      1 modes -  To be done

     Representation    27      1 modes -  To be done

     Representation    28      1 modes -  To be done

     Representation    29      1 modes -  To be done

     Representation    30      1 modes -  To be done

     Representation    31      1 modes -  To be done

     Representation    32      1 modes -  To be done

     Representation    33      1 modes -  To be done

     Representation    34      1 modes -  To be done

     Representation    35      1 modes -  To be done

     Representation    36      1 modes -  To be done

     Representation    37      1 modes -  To be done

     Representation    38      1 modes -  To be done

     Representation    39      1 modes -  To be done

     Representation    40      1 modes -  To be done

     Representation    41      1 modes -  To be done

     Representation    42      1 modes -  To be done

     Representation    43      1 modes -  To be done

     Representation    44      1 modes -  To be done

     Representation    45      1 modes -  To be done

     Representation    46      1 modes -  To be done

     Representation    47      1 modes -  To be done

     Representation    48      1 modes -  To be done

     Representation    49      1 modes -  To be done

     Representation    50      1 modes -  To be done

     Representation    51      1 modes -  To be done

     Representation    52      1 modes -  To be done

     Representation    53      1 modes -  To be done

     Representation    54      1 modes -  To be done

     Representation    55      1 modes -  To be done

     Representation    56      1 modes -  To be done

     Representation    57      1 modes -  To be done

     Representation    58      1 modes -  To be done

     Representation    59      1 modes -  To be done

     Representation    60      1 modes -  To be done


     PHONON       :      2h53m CPU      3h 1m WALL

     Reading dVscf from file dv
     Reading dynamics matrix from file Th2H18.dyn12

     Diagonalizing the dynamical matrix

     q = (    0.375000000  -0.216506351   0.249541662 ) 

 **************************************************************************
     freq (    1) =     -55.941076 [THz] =   -1865.993451 [cm-1]
     freq (    2) =     -51.246378 [THz] =   -1709.395167 [cm-1]
     freq (    3) =     -44.947046 [THz] =   -1499.272082 [cm-1]
     freq (    4) =     -33.321546 [THz] =   -1111.487148 [cm-1]
     freq (    5) =     -30.372977 [THz] =   -1013.133471 [cm-1]
     freq (    6) =     -29.550060 [THz] =    -985.683892 [cm-1]
     freq (    7) =     -26.901970 [THz] =    -897.353131 [cm-1]
     freq (    8) =     -24.465093 [THz] =    -816.067677 [cm-1]
     freq (    9) =     -17.496481 [THz] =    -583.619771 [cm-1]
     freq (   10) =     -16.350977 [THz] =    -545.409899 [cm-1]
     freq (   11) =     -12.249000 [THz] =    -408.582646 [cm-1]
     freq (   12) =       3.546927 [THz] =     118.312755 [cm-1]
     freq (   13) =       3.908947 [THz] =     130.388451 [cm-1]
     freq (   14) =       4.520922 [THz] =     150.801737 [cm-1]
     freq (   15) =       4.636908 [THz] =     154.670591 [cm-1]
     freq (   16) =       5.487484 [THz] =     183.042779 [cm-1]
     freq (   17) =       5.642672 [THz] =     188.219291 [cm-1]
     freq (   18) =      13.869266 [THz] =     462.628930 [cm-1]
     freq (   19) =      15.962188 [THz] =     532.441272 [cm-1]
     freq (   20) =      20.885388 [THz] =     696.661571 [cm-1]
     freq (   21) =      20.950142 [THz] =     698.821507 [cm-1]
     freq (   22) =      22.716705 [THz] =     757.747727 [cm-1]
     freq (   23) =      23.681563 [THz] =     789.931911 [cm-1]
     freq (   24) =      25.615584 [THz] =     854.443904 [cm-1]
     freq (   25) =      27.561777 [THz] =     919.361907 [cm-1]
     freq (   26) =      27.955088 [THz] =     932.481371 [cm-1]
     freq (   27) =      31.059861 [THz] =    1036.045438 [cm-1]
     freq (   28) =      31.103596 [THz] =    1037.504296 [cm-1]
     freq (   29) =      31.320793 [THz] =    1044.749196 [cm-1]
     freq (   30) =      32.242656 [THz] =    1075.499243 [cm-1]
     freq (   31) =      32.316703 [THz] =    1077.969169 [cm-1]
     freq (   32) =      33.490589 [THz] =    1117.125802 [cm-1]
     freq (   33) =      33.976548 [THz] =    1133.335639 [cm-1]
     freq (   34) =      35.729315 [THz] =    1191.801661 [cm-1]
     freq (   35) =      36.254284 [THz] =    1209.312729 [cm-1]
     freq (   36) =      36.587511 [THz] =    1220.428007 [cm-1]
     freq (   37) =      37.454287 [THz] =    1249.340528 [cm-1]
     freq (   38) =      37.849794 [THz] =    1262.533225 [cm-1]
     freq (   39) =      37.963168 [THz] =    1266.314989 [cm-1]
     freq (   40) =      38.490270 [THz] =    1283.897203 [cm-1]
     freq (   41) =      38.931721 [THz] =    1298.622437 [cm-1]
     freq (   42) =      40.236762 [THz] =    1342.153917 [cm-1]
     freq (   43) =      41.424215 [THz] =    1381.763090 [cm-1]
     freq (   44) =      41.632532 [THz] =    1388.711798 [cm-1]
     freq (   45) =      42.029613 [THz] =    1401.956985 [cm-1]
     freq (   46) =      42.667167 [THz] =    1423.223501 [cm-1]
     freq (   47) =      42.820311 [THz] =    1428.331814 [cm-1]
     freq (   48) =      43.329886 [THz] =    1445.329418 [cm-1]
     freq (   49) =      43.874973 [THz] =    1463.511565 [cm-1]
     freq (   50) =      44.010810 [THz] =    1468.042607 [cm-1]
     freq (   51) =      44.761098 [THz] =    1493.069518 [cm-1]
     freq (   52) =      45.115704 [THz] =    1504.897885 [cm-1]
     freq (   53) =      46.033141 [THz] =    1535.500288 [cm-1]
     freq (   54) =      46.999581 [THz] =    1567.737259 [cm-1]
     freq (   55) =      48.043336 [THz] =    1602.553189 [cm-1]
     freq (   56) =      48.522224 [THz] =    1618.527178 [cm-1]
     freq (   57) =      48.735238 [THz] =    1625.632564 [cm-1]
     freq (   58) =      58.257704 [THz] =    1943.267823 [cm-1]
     freq (   59) =      76.977215 [THz] =    2567.683492 [cm-1]
     freq (   60) =      89.332610 [THz] =    2979.815130 [cm-1]
 **************************************************************************

     [elph_tetra]   Lowest band which contains FS :         12
     [elph_tetra]  Highest band which contains FS :         15
     [elph_tetra]    # of bands which contains FS :          4
 
     Tetrahedron method
     DOS =  8.180019 states/spin/Ry/Unit Cell at Ef= 10.931316 eV
     double delta at Ef =139.695130
     lambda(    1)=  0.0000   gamma=    0.00 GHz
     lambda(    2)=  0.0000   gamma=    0.00 GHz
     lambda(    3)=  0.0000   gamma=    0.00 GHz
     lambda(    4)=  0.0000   gamma=    0.00 GHz
     lambda(    5)=  0.0000   gamma=    0.00 GHz
     lambda(    6)=  0.0000   gamma=    0.00 GHz
     lambda(    7)=  0.0000   gamma=    0.00 GHz
     lambda(    8)=  0.0000   gamma=    0.00 GHz
     lambda(    9)=  0.0000   gamma=    0.00 GHz
     lambda(   10)=  0.0000   gamma=    0.00 GHz
     lambda(   11)=  0.0000   gamma=    0.00 GHz
     lambda(   12)=  0.0955   gamma=    9.38 GHz
     lambda(   13)=  0.0722   gamma=    8.62 GHz
     lambda(   14)=  0.0064   gamma=    1.03 GHz
     lambda(   15)=  0.0123   gamma=    2.07 GHz
     lambda(   16)=  0.0301   gamma=    7.09 GHz
     lambda(   17)=  0.0127   gamma=    3.15 GHz
     lambda(   18)=  0.1576   gamma=  236.78 GHz
     lambda(   19)=  0.2090   gamma=  415.97 GHz
     lambda(   20)=  0.0783   gamma=  266.68 GHz
     lambda(   21)=  0.0439   gamma=  150.58 GHz
     lambda(   22)=  0.1010   gamma=  407.09 GHz
     lambda(   23)=  0.1222   gamma=  535.35 GHz
     lambda(   24)=  0.0276   gamma=  141.70 GHz
     lambda(   25)=  0.0185   gamma=  109.90 GHz
     lambda(   26)=  0.0303   gamma=  184.82 GHz
     lambda(   27)=  0.0084   gamma=   63.26 GHz
     lambda(   28)=  0.0190   gamma=  143.28 GHz
     lambda(   29)=  0.0163   gamma=  124.54 GHz
     lambda(   30)=  0.0066   gamma=   53.42 GHz
     lambda(   31)=  0.0130   gamma=  106.40 GHz
     lambda(   32)=  0.0070   gamma=   61.44 GHz
     lambda(   33)=  0.0073   gamma=   66.06 GHz
     lambda(   34)=  0.0228   gamma=  227.09 GHz
     lambda(   35)=  0.0185   gamma=  190.42 GHz
     lambda(   36)=  0.0121   gamma=  126.79 GHz
     lambda(   37)=  0.0091   gamma=   99.84 GHz
     lambda(   38)=  0.0061   gamma=   68.00 GHz
     lambda(   39)=  0.0107   gamma=  120.79 GHz
     lambda(   40)=  0.0092   gamma=  106.11 GHz
     lambda(   41)=  0.0091   gamma=  107.38 GHz
     lambda(   42)=  0.0080   gamma=  101.27 GHz
     lambda(   43)=  0.0051   gamma=   68.30 GHz
     lambda(   44)=  0.0121   gamma=  163.84 GHz
     lambda(   45)=  0.0089   gamma=  123.35 GHz
     lambda(   46)=  0.0060   gamma=   85.62 GHz
     lambda(   47)=  0.0055   gamma=   78.33 GHz
     lambda(   48)=  0.0049   gamma=   71.87 GHz
     lambda(   49)=  0.0046   gamma=   68.61 GHz
     lambda(   50)=  0.0082   gamma=  124.78 GHz
     lambda(   51)=  0.0090   gamma=  140.58 GHz
     lambda(   52)=  0.0043   gamma=   68.65 GHz
     lambda(   53)=  0.0035   gamma=   57.85 GHz
     lambda(   54)=  0.0058   gamma=   99.50 GHz
     lambda(   55)=  0.0075   gamma=  134.37 GHz
     lambda(   56)=  0.0027   gamma=   50.46 GHz
     lambda(   57)=  0.0056   gamma=  103.17 GHz
     lambda(   58)=  0.0034   gamma=   90.29 GHz
     lambda(   59)=  0.0026   gamma=  120.48 GHz
     lambda(   60)=  0.0021   gamma=  127.88 GHz
 
     Number of q in the star =   12
     List of q in the star:
          1   0.375000000  -0.216506351   0.249541662
          2  -0.375000000  -0.216506351  -0.249541662
          3   0.375000000   0.216506351  -0.249541662
          4   0.375000000   0.216506351   0.249541662
          5   0.000000000  -0.433012702   0.249541662
          6   0.000000000   0.433012702   0.249541662
          7  -0.375000000  -0.216506351   0.249541662
          8   0.375000000  -0.216506351  -0.249541662
          9   0.000000000   0.433012702  -0.249541662
         10   0.000000000  -0.433012702  -0.249541662
         11  -0.375000000   0.216506351  -0.249541662
         12  -0.375000000   0.216506351   0.249541662
 
     init_run     :      1.25s CPU      1.31s WALL (      12 calls)
     electrons    :   6537.77s CPU   6819.72s WALL (      12 calls)

     Called by init_run:
     wfcinit      :      0.00s CPU      0.02s WALL (      12 calls)
     potinit      :      0.02s CPU      0.03s WALL (      12 calls)
     hinit0       :      0.35s CPU      0.35s WALL (      12 calls)

     Called by electrons:
     c_bands      :   6524.92s CPU   6806.82s WALL (      12 calls)
     v_of_rho     :      0.01s CPU      0.01s WALL (      13 calls)

     Called by c_bands:
     init_us_2    :    130.59s CPU    136.03s WALL (  907200 calls)
     init_us_2:cp :    128.29s CPU    134.04s WALL (  907200 calls)
     cegterg      :   5955.20s CPU   6099.58s WALL (  128559 calls)

     Called by *egterg:
     cdiaghg      :   2072.72s CPU   2114.34s WALL ( 2379994 calls)
     h_psi        :   3590.26s CPU   3693.34s WALL ( 2508553 calls)
     g_psi        :     19.24s CPU     19.66s WALL ( 2351194 calls)

     Called by h_psi:
     h_psi:calbec :    145.32s CPU    149.69s WALL ( 2508553 calls)
     vloc_psi     :   3351.79s CPU   3447.95s WALL ( 2508553 calls)
     add_vuspsi   :     60.86s CPU     63.13s WALL ( 2508553 calls)

     General routines
     calbec       :    142.64s CPU    147.69s WALL ( 2566153 calls)
     fft          :      0.02s CPU      0.04s WALL (      52 calls)
     ffts         :    115.40s CPU    127.43s WALL (  864000 calls)
     fftw         :   6128.42s CPU   6348.31s WALL (70891560 calls)
     davcio       :     53.67s CPU    183.17s WALL ( 1786453 calls)
 
     Parallel routines
 
     PHONON       :      2h58m CPU      3h 6m WALL

     INITIALIZATION: 
     phq_setup    :      1.45s CPU      2.04s WALL (      12 calls)
     phq_init     :      7.42s CPU      8.23s WALL (      12 calls)
 
     phq_init     :      7.42s CPU      8.23s WALL (      12 calls)
     set_drhoc    :      0.46s CPU      0.47s WALL (      12 calls)
     init_vloc    :      0.14s CPU      0.14s WALL (      13 calls)
     init_us_1    :      0.08s CPU      0.08s WALL (      13 calls)
     init_us_2    :    130.59s CPU    136.03s WALL (  907200 calls)
 
 
 
 
     dvqpsi_us    :   3187.12s CPU   3338.06s WALL (  864000 calls)
     apply_dpot_b :    709.55s CPU    731.77s WALL (  864000 calls)
     vpsifft      :    721.48s CPU    744.25s WALL (  864000 calls)
 
     dvqpsi_us    :   3187.12s CPU   3338.06s WALL (  864000 calls)
     dvqpsi_us_on :    218.40s CPU    224.73s WALL (  864000 calls)
 
 
     h_psi        :   3590.26s CPU   3693.34s WALL ( 2508553 calls)
 
     h_psi        :   3590.26s CPU   3693.34s WALL ( 2508553 calls)
     add_vuspsi   :     60.86s CPU     63.13s WALL ( 2508553 calls)
 
 
 
      Electron-phonon coupling
     elphon       :   4123.90s CPU   4310.70s WALL (      12 calls)
     elphel       :   4123.25s CPU   4308.97s WALL (     720 calls)
 
      General routines
     calbec       :    142.64s CPU    147.69s WALL ( 2566153 calls)
     fft          :      0.02s CPU      0.04s WALL (      52 calls)
     ffts         :    115.40s CPU    127.43s WALL (  864000 calls)
     fftw         :   6128.42s CPU   6348.31s WALL (70891560 calls)
     davcio       :     53.67s CPU    183.17s WALL ( 1786453 calls)
 
 
     PHONON       :      2h58m CPU      3h 6m WALL

 
   This run was terminated on:  18:30:16  28May2022            

=------------------------------------------------------------------------------=
   JOB DONE.
=------------------------------------------------------------------------------=
