
     Program PHONON v.7.0 starts on 31May2022 at  2:46:22 

     This program is part of the open-source Quantum ESPRESSO suite
     for quantum simulation of materials; please cite
         "P. Giannozzi et al., J. Phys.:Condens. Matter 21 395502 (2009);
         "P. Giannozzi et al., J. Phys.:Condens. Matter 29 465901 (2017);
         "P. Giannozzi et al., J. Chem. Phys. 152 154105 (2020);
          URL http://www.quantum-espresso.org", 
     in publications or presentations arising from this work. More details at
     http://www.quantum-espresso.org/quote

     Parallel version (MPI), running on    20 processors

     MPI processes distributed on     1 nodes
     R & G space division:  proc/nbgrp/npool/nimage =      20
     50982 MiB available memory on the printing compute node when the environment starts
 
     Reading input from /cephfs/home/mgrebenyuk/QE/Examples/CaH6/150GPa/2x2x2/ph.in

     Reading xml data from directory:

     ./CaH6.save/

     IMPORTANT: XC functional enforced from input :
     Exchange-correlation= PZ
                           (   1   1   0   0   0   0   0)
     Any further DFT definition will be discarded
     Please, verify this is what you really want

 
     Parallelization info
     --------------------
     sticks:   dense  smooth     PW     G-vecs:    dense   smooth      PW
     Min          33      33     12                  551      551     116
     Max          34      34     13                  553      553     120
     Sum         673     673    241                11033    11033    2347
 
     Using Slab Decomposition
 
     Reading collected, re-writing distributed wavefunctions


     Dynamical matrices for ( 2, 2, 2)  uniform grid of q-points
     With a half shift
     (   4 q-points):
       N         xq(1)         xq(2)         xq(3) 
       1   0.433044353   0.433029481  -0.433039606
       2   0.433040406  -0.000000195  -0.000004141
       3  -0.000000195   0.433014984  -0.000014692
       4  -0.000004142  -0.000014692   0.433020773
     Because shifted q grid is used, q2r will not work !

     Saving dvscf to file. Distribute only q points, not irreducible represetations.

     Calculation of q =    0.4330444   0.4330295  -0.4330396

     Subspace diagonalization in iterative solution of the eigenvalue problem:
     a serial algorithm will be used

     [opt_tetra]  Optimized tetrahedron method is used.
 
     Parallelization info
     --------------------
     sticks:   dense  smooth     PW     G-vecs:    dense   smooth      PW
     Min          33      33     13                  551      551     132
     Max          34      34     14                  553      553     134
     Sum         673     673    261                11033    11033    2659
 
     Using Slab Decomposition
 

     Title: 
     Electron-phonon coefficients for CaH6                                      


     bravais-lattice index     =            0
     lattice parameter (alat)  =       5.2879  a.u.
     unit-cell volume          =     113.8099 (a.u.)^3
     number of atoms/cell      =            7
     number of atomic types    =            2
     number of electrons       =         8.00
     number of Kohn-Sham states=            8
     kinetic-energy cutoff     =      80.0000  Ry
     charge density cutoff     =     320.0000  Ry
     Exchange-correlation= PZ
                           (   1   1   0   0   0   0   0)

     celldm(1)=   5.287860  celldm(2)=   0.000000  celldm(3)=   0.000000
     celldm(4)=   0.000000  celldm(5)=   0.000000  celldm(6)=   0.000000

     crystal axes: (cart. coord. in units of alat)
               a(1) = (   0.577319   0.577367   0.577365 )  
               a(2) = (   0.577308  -0.577367  -0.577354 )  
               a(3) = (  -0.577319   0.577327  -0.577325 )  

     reciprocal axes: (cart. coord. in units 2 pi/alat)
               b(1) = (  0.866080  0.866030 -0.000038 )  
               b(2) = (  0.866089  0.000029 -0.866050 )  
               b(3) = (  0.000008  0.866059 -0.866071 )  


     PseudoPot. # 1 for H  read from file:
     ./H.UPF
     MD5 check sum: df8e43189db5a2d7f03d0dd74d71ce72
     Pseudo is Norm-conserving, Zval =  1.0
     Generated in analytical, separable form
     Using radial grid of  929 points,  0 beta functions with: 

     PseudoPot. # 2 for Ca read from file:
     ./Ca.UPF
     MD5 check sum: 3d0b95105a6fbfe7d4b72bf2bbe3cdff
     Pseudo is Norm-conserving, Zval =  2.0
     Generated in analytical, separable form
     Using radial grid of 1169 points,  6 beta functions with: 
                l(1) =   0
                l(2) =   0
                l(3) =   0
                l(4) =   1
                l(5) =   1
                l(6) =   2

     atomic species   valence    mass     pseudopotential
        H              1.00     1.00794     H ( 1.00)
        Ca             2.00    40.07800     Ca( 1.00)

      2 Sym. Ops., with inversion, found



   Cartesian axes

     site n.     atom                  positions (alat units)
         1           Ca  tau(   1) = (   0.0000004   0.0000001  -0.0000000  )
         2           H   tau(   2) = (   0.2886511  -0.0000190  -0.5773351  )
         3           H   tau(   3) = (   0.2886567   0.5773471   0.0000207  )
         4           H   tau(   4) = (   0.5773133   0.2886733   0.0000091  )
         5           H   tau(   5) = (  -0.0000053   0.2886546  -0.5773234  )
         6           H   tau(   6) = (   0.5773087  -0.0000032  -0.2886637  )
         7           H   tau(   7) = (  -0.0000007   0.5773309  -0.2886507  )

     number of k points=  1024 (tetrahedron method)

     Number of k-points >= 100: set verbosity='high' to print them.

     Dense  grid:    11033 G-vectors     FFT dimensions: (  32,  32,  32)

     Estimated max dynamical RAM per process >       3.39 MB

     Estimated total dynamical RAM >      67.76 MB

     The potential is recalculated from file :
     ./_ph0/CaH6.q_1/CaH6.save/charge-density

     Starting wfcs are    6 atomic +    2 random wfcs

     Band Structure Calculation
     Davidson diagonalization with overlap

     ethr =  1.25E-10,  avg # of iterations = 21.4

     total cpu time spent up to now is       18.5 secs

     End of band structure calculation

     Number of k-points >= 100: set verbosity='high' to print the bands.

     the Fermi energy is    10.9382 ev

     Writing config to output data dir ./_ph0/CaH6.q_1/CaH6.save/
 
     [dfpt_tetra]  Dos(E_F)[/Ry] :   0.6513732E+01

     Electron-phonon coefficients for CaH6                                      

     bravais-lattice index     =            0
     lattice parameter (alat)  =       5.2879  a.u.
     unit-cell volume          =     113.8099 (a.u.)^3
     number of atoms/cell      =            7
     number of atomic types    =            2
     kinetic-energy cut-off    =      80.0000  Ry
     charge density cut-off    =     320.0000  Ry
     convergence threshold     =      1.0E-08
     beta                      =       0.7000
     number of iterations used =            4
     Exchange-correlation= PZ
                           (   1   1   0   0   0   0   0)


     celldm(1)=    5.28786  celldm(2)=    0.00000  celldm(3)=    0.00000
     celldm(4)=    0.00000  celldm(5)=    0.00000  celldm(6)=    0.00000

     crystal axes: (cart. coord. in units of alat)
               a(1) = (  0.5773  0.5774  0.5774 )  
               a(2) = (  0.5773 -0.5774 -0.5774 )  
               a(3) = ( -0.5773  0.5773 -0.5773 )  

     reciprocal axes: (cart. coord. in units 2 pi/alat)
               b(1) = (  0.8661  0.8660 -0.0000 )  
               b(2) = (  0.8661  0.0000 -0.8660 )  
               b(3) = (  0.0000  0.8661 -0.8661 )  


     Atoms inside the unit cell: 

     Cartesian axes

     site n.  atom      mass           positions (alat units)
        1     Ca  40.0780   tau(    1) = (    0.00000    0.00000   -0.00000  )
        2     H    1.0079   tau(    2) = (    0.28865   -0.00002   -0.57734  )
        3     H    1.0079   tau(    3) = (    0.28866    0.57735    0.00002  )
        4     H    1.0079   tau(    4) = (    0.57731    0.28867    0.00001  )
        5     H    1.0079   tau(    5) = (   -0.00001    0.28865   -0.57732  )
        6     H    1.0079   tau(    6) = (    0.57731   -0.00000   -0.28866  )
        7     H    1.0079   tau(    7) = (   -0.00000    0.57733   -0.28865  )

     Computing dynamical matrix for 
                    q = (   0.4330444   0.4330295  -0.4330396 )
 
     No symmetry!

     G cutoff =  226.6471  (    553 G-vectors)     FFT grid: ( 32, 32, 32)
     number of k points=  1024

     PseudoPot. # 1 for H  read from file:
     ./H.UPF
     MD5 check sum: df8e43189db5a2d7f03d0dd74d71ce72
     Pseudo is Norm-conserving, Zval =  1.0
     Generated in analytical, separable form
     Using radial grid of  929 points,  0 beta functions with: 

     PseudoPot. # 2 for Ca read from file:
     ./Ca.UPF
     MD5 check sum: 3d0b95105a6fbfe7d4b72bf2bbe3cdff
     Pseudo is Norm-conserving, Zval =  2.0
     Generated in analytical, separable form
     Using radial grid of 1169 points,  6 beta functions with: 
                l(1) =   0
                l(2) =   0
                l(3) =   0
                l(4) =   1
                l(5) =   1
                l(6) =   2

     Mode symmetry, C_1 (1)     point group:


     Atomic displacements:
     There are   21 irreducible representations

     Representation     1      1 modes -  To be done

     Representation     2      1 modes -  To be done

     Representation     3      1 modes -  To be done

     Representation     4      1 modes -  To be done

     Representation     5      1 modes -  To be done

     Representation     6      1 modes -  To be done

     Representation     7      1 modes -  To be done

     Representation     8      1 modes -  To be done

     Representation     9      1 modes -  To be done

     Representation    10      1 modes -  To be done

     Representation    11      1 modes -  To be done

     Representation    12      1 modes -  To be done

     Representation    13      1 modes -  To be done

     Representation    14      1 modes -  To be done

     Representation    15      1 modes -  To be done

     Representation    16      1 modes -  To be done

     Representation    17      1 modes -  To be done

     Representation    18      1 modes -  To be done

     Representation    19      1 modes -  To be done

     Representation    20      1 modes -  To be done

     Representation    21      1 modes -  To be done



     Alpha used in Ewald sum =   2.8000
     PHONON       :     18.22s CPU     27.61s WALL



     Representation #   1 mode #   1

     Self-consistent Calculation

      iter #   1 total cpu time :    30.0 secs   av.it.:   3.2
      thresh= 1.000E-02 alpha_mix =  0.700 |ddv_scf|^2 =  1.274E-06

      iter #   2 total cpu time :    33.7 secs   av.it.:   6.2
      thresh= 1.129E-04 alpha_mix =  0.700 |ddv_scf|^2 =  1.022E-06

      iter #   3 total cpu time :    37.2 secs   av.it.:   5.8
      thresh= 1.011E-04 alpha_mix =  0.700 |ddv_scf|^2 =  5.258E-09

     End of self-consistent calculation

     Convergence has been achieved 


     Representation #   2 mode #   2

     Self-consistent Calculation

      iter #   1 total cpu time :    39.7 secs   av.it.:   3.2
      thresh= 1.000E-02 alpha_mix =  0.700 |ddv_scf|^2 =  1.276E-06

      iter #   2 total cpu time :    43.4 secs   av.it.:   6.2
      thresh= 1.129E-04 alpha_mix =  0.700 |ddv_scf|^2 =  1.012E-06

      iter #   3 total cpu time :    46.9 secs   av.it.:   5.8
      thresh= 1.006E-04 alpha_mix =  0.700 |ddv_scf|^2 =  5.350E-09

     End of self-consistent calculation

     Convergence has been achieved 


     Representation #   3 mode #   3

     Self-consistent Calculation

      iter #   1 total cpu time :    49.9 secs   av.it.:   3.1
      thresh= 1.000E-02 alpha_mix =  0.700 |ddv_scf|^2 =  1.121E-06

      iter #   2 total cpu time :    53.5 secs   av.it.:   6.1
      thresh= 1.059E-04 alpha_mix =  0.700 |ddv_scf|^2 =  6.945E-07

      iter #   3 total cpu time :    57.0 secs   av.it.:   5.7
      thresh= 8.334E-05 alpha_mix =  0.700 |ddv_scf|^2 =  1.278E-09

     End of self-consistent calculation

     Convergence has been achieved 


     Representation #   4 mode #   4

     Self-consistent Calculation

      iter #   1 total cpu time :    59.6 secs   av.it.:   3.1
      thresh= 1.000E-02 alpha_mix =  0.700 |ddv_scf|^2 =  1.234E-06

      iter #   2 total cpu time :    63.3 secs   av.it.:   6.2
      thresh= 1.111E-04 alpha_mix =  0.700 |ddv_scf|^2 =  9.545E-07

      iter #   3 total cpu time :    66.8 secs   av.it.:   5.8
      thresh= 9.770E-05 alpha_mix =  0.700 |ddv_scf|^2 =  5.244E-09

     End of self-consistent calculation

     Convergence has been achieved 


     Representation #   5 mode #   5

     Self-consistent Calculation

      iter #   1 total cpu time :    69.9 secs   av.it.:   3.4
      thresh= 1.000E-02 alpha_mix =  0.700 |ddv_scf|^2 =  1.815E-06

      iter #   2 total cpu time :    73.5 secs   av.it.:   6.1
      thresh= 1.347E-04 alpha_mix =  0.700 |ddv_scf|^2 =  1.072E-06

      iter #   3 total cpu time :    76.9 secs   av.it.:   5.6
      thresh= 1.035E-04 alpha_mix =  0.700 |ddv_scf|^2 =  1.268E-09

     End of self-consistent calculation

     Convergence has been achieved 


     Representation #   6 mode #   6

     Self-consistent Calculation

      iter #   1 total cpu time :    79.5 secs   av.it.:   3.2
      thresh= 1.000E-02 alpha_mix =  0.700 |ddv_scf|^2 =  1.341E-06

      iter #   2 total cpu time :    83.2 secs   av.it.:   6.2
      thresh= 1.158E-04 alpha_mix =  0.700 |ddv_scf|^2 =  1.221E-06

      iter #   3 total cpu time :    87.0 secs   av.it.:   5.8
      thresh= 1.105E-04 alpha_mix =  0.700 |ddv_scf|^2 =  4.073E-09

     End of self-consistent calculation

     Convergence has been achieved 


     Representation #   7 mode #   7

     Self-consistent Calculation

      iter #   1 total cpu time :    89.7 secs   av.it.:   3.2
      thresh= 1.000E-02 alpha_mix =  0.700 |ddv_scf|^2 =  1.459E-06

      iter #   2 total cpu time :    93.4 secs   av.it.:   6.2
      thresh= 1.208E-04 alpha_mix =  0.700 |ddv_scf|^2 =  1.438E-06

      iter #   3 total cpu time :    97.4 secs   av.it.:   5.7
      thresh= 1.199E-04 alpha_mix =  0.700 |ddv_scf|^2 =  2.411E-09

     End of self-consistent calculation

     Convergence has been achieved 


     Representation #   8 mode #   8

     Self-consistent Calculation

      iter #   1 total cpu time :   100.0 secs   av.it.:   3.1
      thresh= 1.000E-02 alpha_mix =  0.700 |ddv_scf|^2 =  1.150E-06

      iter #   2 total cpu time :   103.7 secs   av.it.:   6.2
      thresh= 1.073E-04 alpha_mix =  0.700 |ddv_scf|^2 =  8.253E-07

      iter #   3 total cpu time :   107.2 secs   av.it.:   5.8
      thresh= 9.084E-05 alpha_mix =  0.700 |ddv_scf|^2 =  4.587E-09

     End of self-consistent calculation

     Convergence has been achieved 


     Representation #   9 mode #   9

     Self-consistent Calculation

      iter #   1 total cpu time :   113.9 secs   av.it.:   3.1
      thresh= 1.000E-02 alpha_mix =  0.700 |ddv_scf|^2 =  1.088E-06

      iter #   2 total cpu time :   118.0 secs   av.it.:   6.1
      thresh= 1.043E-04 alpha_mix =  0.700 |ddv_scf|^2 =  6.955E-07

      iter #   3 total cpu time :   121.5 secs   av.it.:   5.7
      thresh= 8.340E-05 alpha_mix =  0.700 |ddv_scf|^2 =  2.383E-09

     End of self-consistent calculation

     Convergence has been achieved 


     Representation #  10 mode #  10

     Self-consistent Calculation

      iter #   1 total cpu time :   124.1 secs   av.it.:   3.2
      thresh= 1.000E-02 alpha_mix =  0.700 |ddv_scf|^2 =  1.329E-06

      iter #   2 total cpu time :   127.9 secs   av.it.:   6.2
      thresh= 1.153E-04 alpha_mix =  0.700 |ddv_scf|^2 =  1.102E-06

      iter #   3 total cpu time :   131.4 secs   av.it.:   5.8
      thresh= 1.050E-04 alpha_mix =  0.700 |ddv_scf|^2 =  5.366E-09

     End of self-consistent calculation

     Convergence has been achieved 


     Representation #  11 mode #  11

     Self-consistent Calculation

      iter #   1 total cpu time :   134.0 secs   av.it.:   3.1
      thresh= 1.000E-02 alpha_mix =  0.700 |ddv_scf|^2 =  1.096E-06

      iter #   2 total cpu time :   138.2 secs   av.it.:   6.1
      thresh= 1.047E-04 alpha_mix =  0.700 |ddv_scf|^2 =  6.747E-07

      iter #   3 total cpu time :   141.8 secs   av.it.:   5.7
      thresh= 8.214E-05 alpha_mix =  0.700 |ddv_scf|^2 =  1.490E-09

     End of self-consistent calculation

     Convergence has been achieved 


     Representation #  12 mode #  12

     Self-consistent Calculation

      iter #   1 total cpu time :   144.4 secs   av.it.:   3.1
      thresh= 1.000E-02 alpha_mix =  0.700 |ddv_scf|^2 =  1.121E-06

      iter #   2 total cpu time :   148.1 secs   av.it.:   6.2
      thresh= 1.059E-04 alpha_mix =  0.700 |ddv_scf|^2 =  8.020E-07

      iter #   3 total cpu time :   151.6 secs   av.it.:   5.8
      thresh= 8.955E-05 alpha_mix =  0.700 |ddv_scf|^2 =  4.652E-09

     End of self-consistent calculation

     Convergence has been achieved 


     Representation #  13 mode #  13

     Self-consistent Calculation

      iter #   1 total cpu time :   154.2 secs   av.it.:   3.1
      thresh= 1.000E-02 alpha_mix =  0.700 |ddv_scf|^2 =  1.245E-06

      iter #   2 total cpu time :   157.9 secs   av.it.:   6.2
      thresh= 1.116E-04 alpha_mix =  0.700 |ddv_scf|^2 =  1.065E-06

      iter #   3 total cpu time :   162.3 secs   av.it.:   5.8
      thresh= 1.032E-04 alpha_mix =  0.700 |ddv_scf|^2 =  4.781E-09

     End of self-consistent calculation

     Convergence has been achieved 


     Representation #  14 mode #  14

     Self-consistent Calculation

      iter #   1 total cpu time :   165.0 secs   av.it.:   3.4
      thresh= 1.000E-02 alpha_mix =  0.700 |ddv_scf|^2 =  1.805E-06

      iter #   2 total cpu time :   168.6 secs   av.it.:   6.1
      thresh= 1.344E-04 alpha_mix =  0.700 |ddv_scf|^2 =  1.060E-06

      iter #   3 total cpu time :   172.0 secs   av.it.:   5.6
      thresh= 1.030E-04 alpha_mix =  0.700 |ddv_scf|^2 =  1.269E-09

     End of self-consistent calculation

     Convergence has been achieved 


     Representation #  15 mode #  15

     Self-consistent Calculation

      iter #   1 total cpu time :   174.6 secs   av.it.:   3.1
      thresh= 1.000E-02 alpha_mix =  0.700 |ddv_scf|^2 =  1.043E-06

      iter #   2 total cpu time :   178.2 secs   av.it.:   6.1
      thresh= 1.021E-04 alpha_mix =  0.700 |ddv_scf|^2 =  6.320E-07

      iter #   3 total cpu time :   182.1 secs   av.it.:   5.7
      thresh= 7.950E-05 alpha_mix =  0.700 |ddv_scf|^2 =  1.454E-09

     End of self-consistent calculation

     Convergence has been achieved 


     Representation #  16 mode #  16

     Self-consistent Calculation

      iter #   1 total cpu time :   184.6 secs   av.it.:   3.2
      thresh= 1.000E-02 alpha_mix =  0.700 |ddv_scf|^2 =  1.529E-06

      iter #   2 total cpu time :   188.3 secs   av.it.:   6.2
      thresh= 1.237E-04 alpha_mix =  0.700 |ddv_scf|^2 =  1.571E-06

      iter #   3 total cpu time :   191.8 secs   av.it.:   5.7
      thresh= 1.253E-04 alpha_mix =  0.700 |ddv_scf|^2 =  1.218E-09

     End of self-consistent calculation

     Convergence has been achieved 


     Representation #  17 mode #  17

     Self-consistent Calculation

      iter #   1 total cpu time :   194.4 secs   av.it.:   3.2
      thresh= 1.000E-02 alpha_mix =  0.700 |ddv_scf|^2 =  1.390E-06

      iter #   2 total cpu time :   198.1 secs   av.it.:   6.3
      thresh= 1.179E-04 alpha_mix =  0.700 |ddv_scf|^2 =  1.243E-06

      iter #   3 total cpu time :   202.0 secs   av.it.:   5.8
      thresh= 1.115E-04 alpha_mix =  0.700 |ddv_scf|^2 =  4.661E-09

     End of self-consistent calculation

     Convergence has been achieved 


     Representation #  18 mode #  18

     Self-consistent Calculation

      iter #   1 total cpu time :   204.8 secs   av.it.:   3.4
      thresh= 1.000E-02 alpha_mix =  0.700 |ddv_scf|^2 =  1.831E-06

      iter #   2 total cpu time :   208.4 secs   av.it.:   6.1
      thresh= 1.353E-04 alpha_mix =  0.700 |ddv_scf|^2 =  1.086E-06

      iter #   3 total cpu time :   211.9 secs   av.it.:   5.6
      thresh= 1.042E-04 alpha_mix =  0.700 |ddv_scf|^2 =  1.261E-09

     End of self-consistent calculation

     Convergence has been achieved 


     Representation #  19 mode #  19

     Self-consistent Calculation

      iter #   1 total cpu time :   214.5 secs   av.it.:   3.1
      thresh= 1.000E-02 alpha_mix =  0.700 |ddv_scf|^2 =  1.244E-06

      iter #   2 total cpu time :   218.2 secs   av.it.:   6.2
      thresh= 1.115E-04 alpha_mix =  0.700 |ddv_scf|^2 =  8.695E-07

      iter #   3 total cpu time :   221.7 secs   av.it.:   5.8
      thresh= 9.324E-05 alpha_mix =  0.700 |ddv_scf|^2 =  4.005E-09

     End of self-consistent calculation

     Convergence has been achieved 


     Representation #  20 mode #  20

     Self-consistent Calculation

      iter #   1 total cpu time :   224.3 secs   av.it.:   3.2
      thresh= 1.000E-02 alpha_mix =  0.700 |ddv_scf|^2 =  1.269E-06

      iter #   2 total cpu time :   228.4 secs   av.it.:   6.2
      thresh= 1.127E-04 alpha_mix =  0.700 |ddv_scf|^2 =  9.233E-07

      iter #   3 total cpu time :   232.2 secs   av.it.:   5.8
      thresh= 9.609E-05 alpha_mix =  0.700 |ddv_scf|^2 =  4.720E-09

     End of self-consistent calculation

     Convergence has been achieved 


     Representation #  21 mode #  21

     Self-consistent Calculation

      iter #   1 total cpu time :   234.8 secs   av.it.:   3.2
      thresh= 1.000E-02 alpha_mix =  0.700 |ddv_scf|^2 =  1.286E-06

      iter #   2 total cpu time :   238.5 secs   av.it.:   6.2
      thresh= 1.134E-04 alpha_mix =  0.700 |ddv_scf|^2 =  9.193E-07

      iter #   3 total cpu time :   242.0 secs   av.it.:   5.8
      thresh= 9.588E-05 alpha_mix =  0.700 |ddv_scf|^2 =  4.426E-09

     End of self-consistent calculation

     Convergence has been achieved 
 
     Number of q in the star =    2
     List of q in the star:
          1   0.433044353   0.433029481  -0.433039606
          2  -0.433044353  -0.433029481   0.433039606

     Diagonalizing the dynamical matrix

     q = (    0.433044353   0.433029481  -0.433039606 ) 

 **************************************************************************
     freq (    1) =      -7.275602 [THz] =    -242.687971 [cm-1]
     freq (    2) =       5.490150 [THz] =     183.131680 [cm-1]
     freq (    3) =       5.632897 [THz] =     187.893233 [cm-1]
     freq (    4) =       5.676241 [THz] =     189.339017 [cm-1]
     freq (    5) =      18.019468 [THz] =     601.064738 [cm-1]
     freq (    6) =      18.503568 [THz] =     617.212596 [cm-1]
     freq (    7) =      19.117060 [THz] =     637.676497 [cm-1]
     freq (    8) =      20.259072 [THz] =     675.769892 [cm-1]
     freq (    9) =      20.688810 [THz] =     690.104431 [cm-1]
     freq (   10) =      25.582512 [THz] =     853.340747 [cm-1]
     freq (   11) =      25.945994 [THz] =     865.465200 [cm-1]
     freq (   12) =      28.655445 [THz] =     955.842768 [cm-1]
     freq (   13) =      28.825386 [THz] =     961.511371 [cm-1]
     freq (   14) =      30.429095 [THz] =    1015.005360 [cm-1]
     freq (   15) =      32.734518 [THz] =    1091.905976 [cm-1]
     freq (   16) =      45.115703 [THz] =    1504.897881 [cm-1]
     freq (   17) =      45.274457 [THz] =    1510.193317 [cm-1]
     freq (   18) =      45.468859 [THz] =    1516.677865 [cm-1]
     freq (   19) =      50.257957 [THz] =    1676.425001 [cm-1]
     freq (   20) =      51.651813 [THz] =    1722.919014 [cm-1]
     freq (   21) =      52.209957 [THz] =    1741.536691 [cm-1]
 **************************************************************************

     Mode symmetry, C_1 (1)     point group:

     freq (   1-   1) =       -242.7  [cm-1]   --> A                  
     freq (   2-   2) =        183.1  [cm-1]   --> A                  
     freq (   3-   3) =        187.9  [cm-1]   --> A                  
     freq (   4-   4) =        189.3  [cm-1]   --> A                  
     freq (   5-   5) =        601.1  [cm-1]   --> A                  
     freq (   6-   6) =        617.2  [cm-1]   --> A                  
     freq (   7-   7) =        637.7  [cm-1]   --> A                  
     freq (   8-   8) =        675.8  [cm-1]   --> A                  
     freq (   9-   9) =        690.1  [cm-1]   --> A                  
     freq (  10-  10) =        853.3  [cm-1]   --> A                  
     freq (  11-  11) =        865.5  [cm-1]   --> A                  
     freq (  12-  12) =        955.8  [cm-1]   --> A                  
     freq (  13-  13) =        961.5  [cm-1]   --> A                  
     freq (  14-  14) =       1015.0  [cm-1]   --> A                  
     freq (  15-  15) =       1091.9  [cm-1]   --> A                  
     freq (  16-  16) =       1504.9  [cm-1]   --> A                  
     freq (  17-  17) =       1510.2  [cm-1]   --> A                  
     freq (  18-  18) =       1516.7  [cm-1]   --> A                  
     freq (  19-  19) =       1676.4  [cm-1]   --> A                  
     freq (  20-  20) =       1722.9  [cm-1]   --> A                  
     freq (  21-  21) =       1741.5  [cm-1]   --> A                  

     Calculation of q =    0.4330404  -0.0000002  -0.0000041
     [opt_tetra]  Optimized tetrahedron method is used.
 
     Parallelization info
     --------------------
     sticks:   dense  smooth     PW     G-vecs:    dense   smooth      PW
     Min          33      33     12                  551      551     116
     Max          34      34     13                  553      553     120
     Sum         673     673    241                11033    11033    2347
 
     Using Slab Decomposition
 

     Title: 
     Electron-phonon coefficients for CaH6                                      


     bravais-lattice index     =            0
     lattice parameter (alat)  =       5.2879  a.u.
     unit-cell volume          =     113.8099 (a.u.)^3
     number of atoms/cell      =            7
     number of atomic types    =            2
     number of electrons       =         8.00
     number of Kohn-Sham states=            8
     kinetic-energy cutoff     =      80.0000  Ry
     charge density cutoff     =     320.0000  Ry
     Exchange-correlation= PZ
                           (   1   1   0   0   0   0   0)

     celldm(1)=   5.287860  celldm(2)=   0.000000  celldm(3)=   0.000000
     celldm(4)=   0.000000  celldm(5)=   0.000000  celldm(6)=   0.000000

     crystal axes: (cart. coord. in units of alat)
               a(1) = (   0.577319   0.577367   0.577365 )  
               a(2) = (   0.577308  -0.577367  -0.577354 )  
               a(3) = (  -0.577319   0.577327  -0.577325 )  

     reciprocal axes: (cart. coord. in units 2 pi/alat)
               b(1) = (  0.866080  0.866030 -0.000038 )  
               b(2) = (  0.866089  0.000029 -0.866050 )  
               b(3) = (  0.000008  0.866059 -0.866071 )  


     PseudoPot. # 1 for H  read from file:
     ./H.UPF
     MD5 check sum: df8e43189db5a2d7f03d0dd74d71ce72
     Pseudo is Norm-conserving, Zval =  1.0
     Generated in analytical, separable form
     Using radial grid of  929 points,  0 beta functions with: 

     PseudoPot. # 2 for Ca read from file:
     ./Ca.UPF
     MD5 check sum: 3d0b95105a6fbfe7d4b72bf2bbe3cdff
     Pseudo is Norm-conserving, Zval =  2.0
     Generated in analytical, separable form
     Using radial grid of 1169 points,  6 beta functions with: 
                l(1) =   0
                l(2) =   0
                l(3) =   0
                l(4) =   1
                l(5) =   1
                l(6) =   2

     atomic species   valence    mass     pseudopotential
        H              1.00     1.00794     H ( 1.00)
        Ca             2.00    40.07800     Ca( 1.00)

      2 Sym. Ops., with inversion, found



   Cartesian axes

     site n.     atom                  positions (alat units)
         1           Ca  tau(   1) = (   0.0000004   0.0000001  -0.0000000  )
         2           H   tau(   2) = (   0.2886511  -0.0000190  -0.5773351  )
         3           H   tau(   3) = (   0.2886567   0.5773471   0.0000207  )
         4           H   tau(   4) = (   0.5773133   0.2886733   0.0000091  )
         5           H   tau(   5) = (  -0.0000053   0.2886546  -0.5773234  )
         6           H   tau(   6) = (   0.5773087  -0.0000032  -0.2886637  )
         7           H   tau(   7) = (  -0.0000007   0.5773309  -0.2886507  )

     number of k points=  1024 (tetrahedron method)

     Number of k-points >= 100: set verbosity='high' to print them.

     Dense  grid:    11033 G-vectors     FFT dimensions: (  32,  32,  32)

     Estimated max dynamical RAM per process >       3.33 MB

     Estimated total dynamical RAM >      66.58 MB

     The potential is recalculated from file :
     ./_ph0/CaH6.q_2/CaH6.save/charge-density

     Starting wfcs are    6 atomic +    2 random wfcs

     Band Structure Calculation
     Davidson diagonalization with overlap

     ethr =  1.25E-10,  avg # of iterations = 21.2

     total cpu time spent up to now is       37.1 secs

     End of band structure calculation

     Number of k-points >= 100: set verbosity='high' to print the bands.

     the Fermi energy is    10.9382 ev

     Writing config to output data dir ./_ph0/CaH6.q_2/CaH6.save/
 
     [dfpt_tetra]  Dos(E_F)[/Ry] :   0.6513732E+01

     Electron-phonon coefficients for CaH6                                      

     bravais-lattice index     =            0
     lattice parameter (alat)  =       5.2879  a.u.
     unit-cell volume          =     113.8099 (a.u.)^3
     number of atoms/cell      =            7
     number of atomic types    =            2
     kinetic-energy cut-off    =      80.0000  Ry
     charge density cut-off    =     320.0000  Ry
     convergence threshold     =      1.0E-08
     beta                      =       0.7000
     number of iterations used =            4
     Exchange-correlation= PZ
                           (   1   1   0   0   0   0   0)


     celldm(1)=    5.28786  celldm(2)=    0.00000  celldm(3)=    0.00000
     celldm(4)=    0.00000  celldm(5)=    0.00000  celldm(6)=    0.00000

     crystal axes: (cart. coord. in units of alat)
               a(1) = (  0.5773  0.5774  0.5774 )  
               a(2) = (  0.5773 -0.5774 -0.5774 )  
               a(3) = ( -0.5773  0.5773 -0.5773 )  

     reciprocal axes: (cart. coord. in units 2 pi/alat)
               b(1) = (  0.8661  0.8660 -0.0000 )  
               b(2) = (  0.8661  0.0000 -0.8660 )  
               b(3) = (  0.0000  0.8661 -0.8661 )  


     Atoms inside the unit cell: 

     Cartesian axes

     site n.  atom      mass           positions (alat units)
        1     Ca  40.0780   tau(    1) = (    0.00000    0.00000   -0.00000  )
        2     H    1.0079   tau(    2) = (    0.28865   -0.00002   -0.57734  )
        3     H    1.0079   tau(    3) = (    0.28866    0.57735    0.00002  )
        4     H    1.0079   tau(    4) = (    0.57731    0.28867    0.00001  )
        5     H    1.0079   tau(    5) = (   -0.00001    0.28865   -0.57732  )
        6     H    1.0079   tau(    6) = (    0.57731   -0.00000   -0.28866  )
        7     H    1.0079   tau(    7) = (   -0.00000    0.57733   -0.28865  )

     Computing dynamical matrix for 
                    q = (   0.4330404  -0.0000002  -0.0000041 )
 
     No symmetry!

     G cutoff =  226.6471  (    553 G-vectors)     FFT grid: ( 32, 32, 32)
     number of k points=  1024

     PseudoPot. # 1 for H  read from file:
     ./H.UPF
     MD5 check sum: df8e43189db5a2d7f03d0dd74d71ce72
     Pseudo is Norm-conserving, Zval =  1.0
     Generated in analytical, separable form
     Using radial grid of  929 points,  0 beta functions with: 

     PseudoPot. # 2 for Ca read from file:
     ./Ca.UPF
     MD5 check sum: 3d0b95105a6fbfe7d4b72bf2bbe3cdff
     Pseudo is Norm-conserving, Zval =  2.0
     Generated in analytical, separable form
     Using radial grid of 1169 points,  6 beta functions with: 
                l(1) =   0
                l(2) =   0
                l(3) =   0
                l(4) =   1
                l(5) =   1
                l(6) =   2

     Mode symmetry, C_1 (1)     point group:


     Atomic displacements:
     There are   21 irreducible representations

     Representation     1      1 modes -  To be done

     Representation     2      1 modes -  To be done

     Representation     3      1 modes -  To be done

     Representation     4      1 modes -  To be done

     Representation     5      1 modes -  To be done

     Representation     6      1 modes -  To be done

     Representation     7      1 modes -  To be done

     Representation     8      1 modes -  To be done

     Representation     9      1 modes -  To be done

     Representation    10      1 modes -  To be done

     Representation    11      1 modes -  To be done

     Representation    12      1 modes -  To be done

     Representation    13      1 modes -  To be done

     Representation    14      1 modes -  To be done

     Representation    15      1 modes -  To be done

     Representation    16      1 modes -  To be done

     Representation    17      1 modes -  To be done

     Representation    18      1 modes -  To be done

     Representation    19      1 modes -  To be done

     Representation    20      1 modes -  To be done

     Representation    21      1 modes -  To be done



     Alpha used in Ewald sum =   2.8000
     PHONON       :   3m45.98s CPU   4m21.13s WALL



     Representation #   1 mode #   1

     Self-consistent Calculation

      iter #   1 total cpu time :   263.6 secs   av.it.:   3.2
      thresh= 1.000E-02 alpha_mix =  0.700 |ddv_scf|^2 =  9.371E-06

      iter #   2 total cpu time :   267.3 secs   av.it.:   6.0
      thresh= 3.061E-04 alpha_mix =  0.700 |ddv_scf|^2 =  1.118E-04

      iter #   3 total cpu time :   275.8 secs   av.it.:   5.0
      thresh= 1.057E-03 alpha_mix =  0.700 |ddv_scf|^2 =  1.219E-08

      iter #   4 total cpu time :   279.6 secs   av.it.:   6.5
      thresh= 1.104E-05 alpha_mix =  0.700 |ddv_scf|^2 =  2.475E-10

     End of self-consistent calculation

     Convergence has been achieved 


     Representation #   2 mode #   2

     Self-consistent Calculation

      iter #   1 total cpu time :   282.3 secs   av.it.:   3.2
      thresh= 1.000E-02 alpha_mix =  0.700 |ddv_scf|^2 =  1.337E-05

      iter #   2 total cpu time :   286.0 secs   av.it.:   6.0
      thresh= 3.656E-04 alpha_mix =  0.700 |ddv_scf|^2 =  1.586E-04

      iter #   3 total cpu time :   289.2 secs   av.it.:   5.0
      thresh= 1.259E-03 alpha_mix =  0.700 |ddv_scf|^2 =  1.695E-08

      iter #   4 total cpu time :   293.0 secs   av.it.:   6.3
      thresh= 1.302E-05 alpha_mix =  0.700 |ddv_scf|^2 =  2.322E-10

     End of self-consistent calculation

     Convergence has been achieved 


     Representation #   3 mode #   3

     Self-consistent Calculation

      iter #   1 total cpu time :   296.1 secs   av.it.:   3.2
      thresh= 1.000E-02 alpha_mix =  0.700 |ddv_scf|^2 =  1.501E-05

      iter #   2 total cpu time :   299.8 secs   av.it.:   6.0
      thresh= 3.875E-04 alpha_mix =  0.700 |ddv_scf|^2 =  1.803E-04

      iter #   3 total cpu time :   303.2 secs   av.it.:   4.9
      thresh= 1.343E-03 alpha_mix =  0.700 |ddv_scf|^2 =  9.879E-09

     End of self-consistent calculation

     Convergence has been achieved 


     Representation #   4 mode #   4

     Self-consistent Calculation

      iter #   1 total cpu time :   305.8 secs   av.it.:   3.3
      thresh= 1.000E-02 alpha_mix =  0.700 |ddv_scf|^2 =  1.805E-05

      iter #   2 total cpu time :   309.5 secs   av.it.:   6.0
      thresh= 4.249E-04 alpha_mix =  0.700 |ddv_scf|^2 =  2.205E-04

      iter #   3 total cpu time :   312.7 secs   av.it.:   4.9
      thresh= 1.485E-03 alpha_mix =  0.700 |ddv_scf|^2 =  1.303E-08

      iter #   4 total cpu time :   317.3 secs   av.it.:   6.6
      thresh= 1.142E-05 alpha_mix =  0.700 |ddv_scf|^2 =  4.876E-10

     End of self-consistent calculation

     Convergence has been achieved 


     Representation #   5 mode #   5

     Self-consistent Calculation

      iter #   1 total cpu time :   320.1 secs   av.it.:   3.5
      thresh= 1.000E-02 alpha_mix =  0.700 |ddv_scf|^2 =  4.042E-06

      iter #   2 total cpu time :   323.8 secs   av.it.:   6.1
      thresh= 2.011E-04 alpha_mix =  0.700 |ddv_scf|^2 =  4.464E-05

      iter #   3 total cpu time :   327.2 secs   av.it.:   5.0
      thresh= 6.681E-04 alpha_mix =  0.700 |ddv_scf|^2 =  3.215E-08

      iter #   4 total cpu time :   330.9 secs   av.it.:   5.9
      thresh= 1.793E-05 alpha_mix =  0.700 |ddv_scf|^2 =  3.345E-10

     End of self-consistent calculation

     Convergence has been achieved 


     Representation #   6 mode #   6

     Self-consistent Calculation

      iter #   1 total cpu time :   333.5 secs   av.it.:   3.1
      thresh= 1.000E-02 alpha_mix =  0.700 |ddv_scf|^2 =  2.915E-06

      iter #   2 total cpu time :   337.7 secs   av.it.:   6.1
      thresh= 1.707E-04 alpha_mix =  0.700 |ddv_scf|^2 =  3.226E-05

      iter #   3 total cpu time :   340.9 secs   av.it.:   5.0
      thresh= 5.680E-04 alpha_mix =  0.700 |ddv_scf|^2 =  2.110E-08

      iter #   4 total cpu time :   344.6 secs   av.it.:   6.1
      thresh= 1.452E-05 alpha_mix =  0.700 |ddv_scf|^2 =  1.094E-10

     End of self-consistent calculation

     Convergence has been achieved 


     Representation #   7 mode #   7

     Self-consistent Calculation

      iter #   1 total cpu time :   347.1 secs   av.it.:   3.1
      thresh= 1.000E-02 alpha_mix =  0.700 |ddv_scf|^2 =  2.582E-06

      iter #   2 total cpu time :   350.9 secs   av.it.:   6.1
      thresh= 1.607E-04 alpha_mix =  0.700 |ddv_scf|^2 =  2.818E-05

      iter #   3 total cpu time :   354.1 secs   av.it.:   5.0
      thresh= 5.309E-04 alpha_mix =  0.700 |ddv_scf|^2 =  2.124E-08

      iter #   4 total cpu time :   357.8 secs   av.it.:   6.0
      thresh= 1.457E-05 alpha_mix =  0.700 |ddv_scf|^2 =  9.942E-11

     End of self-consistent calculation

     Convergence has been achieved 


     Representation #   8 mode #   8

     Self-consistent Calculation

      iter #   1 total cpu time :   360.4 secs   av.it.:   3.2
      thresh= 1.000E-02 alpha_mix =  0.700 |ddv_scf|^2 =  3.934E-06

      iter #   2 total cpu time :   364.8 secs   av.it.:   6.1
      thresh= 1.984E-04 alpha_mix =  0.700 |ddv_scf|^2 =  4.420E-05

      iter #   3 total cpu time :   368.0 secs   av.it.:   5.0
      thresh= 6.648E-04 alpha_mix =  0.700 |ddv_scf|^2 =  2.460E-08

      iter #   4 total cpu time :   371.9 secs   av.it.:   6.1
      thresh= 1.568E-05 alpha_mix =  0.700 |ddv_scf|^2 =  1.450E-10

     End of self-consistent calculation

     Convergence has been achieved 


     Representation #   9 mode #   9

     Self-consistent Calculation

      iter #   1 total cpu time :   374.5 secs   av.it.:   3.3
      thresh= 1.000E-02 alpha_mix =  0.700 |ddv_scf|^2 =  1.271E-05

      iter #   2 total cpu time :   378.3 secs   av.it.:   6.0
      thresh= 3.566E-04 alpha_mix =  0.700 |ddv_scf|^2 =  1.546E-04

      iter #   3 total cpu time :   382.0 secs   av.it.:   4.9
      thresh= 1.243E-03 alpha_mix =  0.700 |ddv_scf|^2 =  1.193E-08

      iter #   4 total cpu time :   385.9 secs   av.it.:   6.6
      thresh= 1.092E-05 alpha_mix =  0.700 |ddv_scf|^2 =  3.823E-10

     End of self-consistent calculation

     Convergence has been achieved 


     Representation #  10 mode #  10

     Self-consistent Calculation

      iter #   1 total cpu time :   388.5 secs   av.it.:   3.3
      thresh= 1.000E-02 alpha_mix =  0.700 |ddv_scf|^2 =  1.598E-05

      iter #   2 total cpu time :   392.2 secs   av.it.:   6.0
      thresh= 3.998E-04 alpha_mix =  0.700 |ddv_scf|^2 =  1.939E-04

      iter #   3 total cpu time :   395.5 secs   av.it.:   4.9
      thresh= 1.393E-03 alpha_mix =  0.700 |ddv_scf|^2 =  1.172E-08

      iter #   4 total cpu time :   399.4 secs   av.it.:   6.6
      thresh= 1.083E-05 alpha_mix =  0.700 |ddv_scf|^2 =  3.869E-10

     End of self-consistent calculation

     Convergence has been achieved 


     Representation #  11 mode #  11

     Self-consistent Calculation

      iter #   1 total cpu time :   402.6 secs   av.it.:   3.2
      thresh= 1.000E-02 alpha_mix =  0.700 |ddv_scf|^2 =  1.247E-05

      iter #   2 total cpu time :   406.3 secs   av.it.:   6.0
      thresh= 3.532E-04 alpha_mix =  0.700 |ddv_scf|^2 =  1.492E-04

      iter #   3 total cpu time :   409.5 secs   av.it.:   4.9
      thresh= 1.221E-03 alpha_mix =  0.700 |ddv_scf|^2 =  1.022E-08

      iter #   4 total cpu time :   413.4 secs   av.it.:   6.4
      thresh= 1.011E-05 alpha_mix =  0.700 |ddv_scf|^2 =  2.291E-10

     End of self-consistent calculation

     Convergence has been achieved 


     Representation #  12 mode #  12

     Self-consistent Calculation

      iter #   1 total cpu time :   416.0 secs   av.it.:   3.3
      thresh= 1.000E-02 alpha_mix =  0.700 |ddv_scf|^2 =  1.930E-05

      iter #   2 total cpu time :   419.7 secs   av.it.:   6.0
      thresh= 4.393E-04 alpha_mix =  0.700 |ddv_scf|^2 =  2.338E-04

      iter #   3 total cpu time :   422.9 secs   av.it.:   4.9
      thresh= 1.529E-03 alpha_mix =  0.700 |ddv_scf|^2 =  8.677E-09

     End of self-consistent calculation

     Convergence has been achieved 


     Representation #  13 mode #  13

     Self-consistent Calculation

      iter #   1 total cpu time :   425.5 secs   av.it.:   3.1
      thresh= 1.000E-02 alpha_mix =  0.700 |ddv_scf|^2 =  5.445E-06

      iter #   2 total cpu time :   429.7 secs   av.it.:   6.1
      thresh= 2.333E-04 alpha_mix =  0.700 |ddv_scf|^2 =  6.338E-05

      iter #   3 total cpu time :   432.9 secs   av.it.:   5.0
      thresh= 7.961E-04 alpha_mix =  0.700 |ddv_scf|^2 =  1.270E-08

      iter #   4 total cpu time :   436.6 secs   av.it.:   6.2
      thresh= 1.127E-05 alpha_mix =  0.700 |ddv_scf|^2 =  1.180E-10

     End of self-consistent calculation

     Convergence has been achieved 


     Representation #  14 mode #  14

     Self-consistent Calculation

      iter #   1 total cpu time :   439.5 secs   av.it.:   3.7
      thresh= 1.000E-02 alpha_mix =  0.700 |ddv_scf|^2 =  6.398E-05

      iter #   2 total cpu time :   443.3 secs   av.it.:   6.0
      thresh= 7.999E-04 alpha_mix =  0.700 |ddv_scf|^2 =  7.629E-04

      iter #   3 total cpu time :   447.3 secs   av.it.:   4.9
      thresh= 2.762E-03 alpha_mix =  0.700 |ddv_scf|^2 =  5.105E-08

      iter #   4 total cpu time :   451.1 secs   av.it.:   6.2
      thresh= 2.260E-05 alpha_mix =  0.700 |ddv_scf|^2 =  1.123E-09

     End of self-consistent calculation

     Convergence has been achieved 


     Representation #  15 mode #  15

     Self-consistent Calculation

      iter #   1 total cpu time :   453.7 secs   av.it.:   3.2
      thresh= 1.000E-02 alpha_mix =  0.700 |ddv_scf|^2 =  7.529E-06

      iter #   2 total cpu time :   457.4 secs   av.it.:   6.0
      thresh= 2.744E-04 alpha_mix =  0.700 |ddv_scf|^2 =  8.866E-05

      iter #   3 total cpu time :   460.6 secs   av.it.:   5.0
      thresh= 9.416E-04 alpha_mix =  0.700 |ddv_scf|^2 =  1.179E-08

      iter #   4 total cpu time :   464.4 secs   av.it.:   6.3
      thresh= 1.086E-05 alpha_mix =  0.700 |ddv_scf|^2 =  1.633E-10

     End of self-consistent calculation

     Convergence has been achieved 


     Representation #  16 mode #  16

     Self-consistent Calculation

      iter #   1 total cpu time :   467.0 secs   av.it.:   3.1
      thresh= 1.000E-02 alpha_mix =  0.700 |ddv_scf|^2 =  1.868E-06

      iter #   2 total cpu time :   470.7 secs   av.it.:   6.1
      thresh= 1.367E-04 alpha_mix =  0.700 |ddv_scf|^2 =  1.942E-05

      iter #   3 total cpu time :   474.7 secs   av.it.:   5.0
      thresh= 4.407E-04 alpha_mix =  0.700 |ddv_scf|^2 =  2.842E-08

      iter #   4 total cpu time :   478.3 secs   av.it.:   5.9
      thresh= 1.686E-05 alpha_mix =  0.700 |ddv_scf|^2 =  8.903E-11

     End of self-consistent calculation

     Convergence has been achieved 


     Representation #  17 mode #  17

     Self-consistent Calculation

      iter #   1 total cpu time :   480.9 secs   av.it.:   3.1
      thresh= 1.000E-02 alpha_mix =  0.700 |ddv_scf|^2 =  3.202E-06

      iter #   2 total cpu time :   484.6 secs   av.it.:   6.1
      thresh= 1.789E-04 alpha_mix =  0.700 |ddv_scf|^2 =  3.663E-05

      iter #   3 total cpu time :   487.8 secs   av.it.:   4.9
      thresh= 6.052E-04 alpha_mix =  0.700 |ddv_scf|^2 =  1.386E-08

      iter #   4 total cpu time :   494.8 secs   av.it.:   6.3
      thresh= 1.177E-05 alpha_mix =  0.700 |ddv_scf|^2 =  2.013E-10

     End of self-consistent calculation

     Convergence has been achieved 


     Representation #  18 mode #  18

     Self-consistent Calculation

      iter #   1 total cpu time :   497.6 secs   av.it.:   3.5
      thresh= 1.000E-02 alpha_mix =  0.700 |ddv_scf|^2 =  1.516E-05

      iter #   2 total cpu time :   505.7 secs   av.it.:   6.0
      thresh= 3.893E-04 alpha_mix =  0.700 |ddv_scf|^2 =  1.778E-04

      iter #   3 total cpu time :   508.9 secs   av.it.:   5.0
      thresh= 1.333E-03 alpha_mix =  0.700 |ddv_scf|^2 =  2.861E-08

      iter #   4 total cpu time :   512.7 secs   av.it.:   6.2
      thresh= 1.692E-05 alpha_mix =  0.700 |ddv_scf|^2 =  4.474E-10

     End of self-consistent calculation

     Convergence has been achieved 


     Representation #  19 mode #  19

     Self-consistent Calculation

      iter #   1 total cpu time :   515.4 secs   av.it.:   3.3
      thresh= 1.000E-02 alpha_mix =  0.700 |ddv_scf|^2 =  1.924E-05

      iter #   2 total cpu time :   519.7 secs   av.it.:   6.0
      thresh= 4.386E-04 alpha_mix =  0.700 |ddv_scf|^2 =  2.319E-04

      iter #   3 total cpu time :   522.9 secs   av.it.:   4.9
      thresh= 1.523E-03 alpha_mix =  0.700 |ddv_scf|^2 =  9.815E-09

     End of self-consistent calculation

     Convergence has been achieved 


     Representation #  20 mode #  20

     Self-consistent Calculation

      iter #   1 total cpu time :   525.6 secs   av.it.:   3.2
      thresh= 1.000E-02 alpha_mix =  0.700 |ddv_scf|^2 =  5.811E-06

      iter #   2 total cpu time :   529.3 secs   av.it.:   6.0
      thresh= 2.411E-04 alpha_mix =  0.700 |ddv_scf|^2 =  6.628E-05

      iter #   3 total cpu time :   532.5 secs   av.it.:   5.0
      thresh= 8.142E-04 alpha_mix =  0.700 |ddv_scf|^2 =  3.078E-08

      iter #   4 total cpu time :   536.1 secs   av.it.:   6.1
      thresh= 1.754E-05 alpha_mix =  0.700 |ddv_scf|^2 =  1.870E-10

     End of self-consistent calculation

     Convergence has been achieved 


     Representation #  21 mode #  21

     Self-consistent Calculation

      iter #   1 total cpu time :   539.2 secs   av.it.:   3.2
      thresh= 1.000E-02 alpha_mix =  0.700 |ddv_scf|^2 =  7.098E-06

      iter #   2 total cpu time :   542.9 secs   av.it.:   6.1
      thresh= 2.664E-04 alpha_mix =  0.700 |ddv_scf|^2 =  8.417E-05

      iter #   3 total cpu time :   546.0 secs   av.it.:   4.9
      thresh= 9.174E-04 alpha_mix =  0.700 |ddv_scf|^2 =  1.613E-08

      iter #   4 total cpu time :   549.8 secs   av.it.:   6.4
      thresh= 1.270E-05 alpha_mix =  0.700 |ddv_scf|^2 =  2.204E-10

     End of self-consistent calculation

     Convergence has been achieved 
 
     Number of q in the star =    2
     List of q in the star:
          1   0.433040406  -0.000000195  -0.000004141
          2  -0.433040406   0.000000195   0.000004141

     Diagonalizing the dynamical matrix

     q = (    0.433040406  -0.000000195  -0.000004141 ) 

 **************************************************************************
     freq (    1) =       5.669678 [THz] =     189.120086 [cm-1]
     freq (    2) =       7.295929 [THz] =     243.366005 [cm-1]
     freq (    3) =       7.462010 [THz] =     248.905869 [cm-1]
     freq (    4) =      18.184251 [THz] =     606.561312 [cm-1]
     freq (    5) =      19.685699 [THz] =     656.644241 [cm-1]
     freq (    6) =      21.748021 [THz] =     725.435883 [cm-1]
     freq (    7) =      22.338014 [THz] =     745.115956 [cm-1]
     freq (    8) =      22.603621 [THz] =     753.975645 [cm-1]
     freq (    9) =      26.772461 [THz] =     893.033182 [cm-1]
     freq (   10) =      28.454279 [THz] =     949.132578 [cm-1]
     freq (   11) =      28.662718 [THz] =     956.085374 [cm-1]
     freq (   12) =      31.192668 [THz] =    1040.475404 [cm-1]
     freq (   13) =      33.136209 [THz] =    1105.304953 [cm-1]
     freq (   14) =      35.844965 [THz] =    1195.659321 [cm-1]
     freq (   15) =      37.174553 [THz] =    1240.009606 [cm-1]
     freq (   16) =      38.045406 [THz] =    1269.058156 [cm-1]
     freq (   17) =      42.134522 [THz] =    1405.456359 [cm-1]
     freq (   18) =      44.034511 [THz] =    1468.833194 [cm-1]
     freq (   19) =      46.420665 [THz] =    1548.426707 [cm-1]
     freq (   20) =      59.662897 [THz] =    1990.140039 [cm-1]
     freq (   21) =      67.152211 [THz] =    2239.956634 [cm-1]
 **************************************************************************

     Mode symmetry, C_1 (1)     point group:

     freq (   1-   1) =        189.1  [cm-1]   --> A                  
     freq (   2-   2) =        243.4  [cm-1]   --> A                  
     freq (   3-   3) =        248.9  [cm-1]   --> A                  
     freq (   4-   4) =        606.6  [cm-1]   --> A                  
     freq (   5-   5) =        656.6  [cm-1]   --> A                  
     freq (   6-   6) =        725.4  [cm-1]   --> A                  
     freq (   7-   7) =        745.1  [cm-1]   --> A                  
     freq (   8-   8) =        754.0  [cm-1]   --> A                  
     freq (   9-   9) =        893.0  [cm-1]   --> A                  
     freq (  10-  10) =        949.1  [cm-1]   --> A                  
     freq (  11-  11) =        956.1  [cm-1]   --> A                  
     freq (  12-  12) =       1040.5  [cm-1]   --> A                  
     freq (  13-  13) =       1105.3  [cm-1]   --> A                  
     freq (  14-  14) =       1195.7  [cm-1]   --> A                  
     freq (  15-  15) =       1240.0  [cm-1]   --> A                  
     freq (  16-  16) =       1269.1  [cm-1]   --> A                  
     freq (  17-  17) =       1405.5  [cm-1]   --> A                  
     freq (  18-  18) =       1468.8  [cm-1]   --> A                  
     freq (  19-  19) =       1548.4  [cm-1]   --> A                  
     freq (  20-  20) =       1990.1  [cm-1]   --> A                  
     freq (  21-  21) =       2240.0  [cm-1]   --> A                  

     Calculation of q =   -0.0000002   0.4330150  -0.0000147
     [opt_tetra]  Optimized tetrahedron method is used.
 
     Parallelization info
     --------------------
     sticks:   dense  smooth     PW     G-vecs:    dense   smooth      PW
     Min          33      33     12                  551      551     116
     Max          34      34     13                  553      553     120
     Sum         673     673    241                11033    11033    2347
 
     Using Slab Decomposition
 

     Title: 
     Electron-phonon coefficients for CaH6                                      


     bravais-lattice index     =            0
     lattice parameter (alat)  =       5.2879  a.u.
     unit-cell volume          =     113.8099 (a.u.)^3
     number of atoms/cell      =            7
     number of atomic types    =            2
     number of electrons       =         8.00
     number of Kohn-Sham states=            8
     kinetic-energy cutoff     =      80.0000  Ry
     charge density cutoff     =     320.0000  Ry
     Exchange-correlation= PZ
                           (   1   1   0   0   0   0   0)

     celldm(1)=   5.287860  celldm(2)=   0.000000  celldm(3)=   0.000000
     celldm(4)=   0.000000  celldm(5)=   0.000000  celldm(6)=   0.000000

     crystal axes: (cart. coord. in units of alat)
               a(1) = (   0.577319   0.577367   0.577365 )  
               a(2) = (   0.577308  -0.577367  -0.577354 )  
               a(3) = (  -0.577319   0.577327  -0.577325 )  

     reciprocal axes: (cart. coord. in units 2 pi/alat)
               b(1) = (  0.866080  0.866030 -0.000038 )  
               b(2) = (  0.866089  0.000029 -0.866050 )  
               b(3) = (  0.000008  0.866059 -0.866071 )  


     PseudoPot. # 1 for H  read from file:
     ./H.UPF
     MD5 check sum: df8e43189db5a2d7f03d0dd74d71ce72
     Pseudo is Norm-conserving, Zval =  1.0
     Generated in analytical, separable form
     Using radial grid of  929 points,  0 beta functions with: 

     PseudoPot. # 2 for Ca read from file:
     ./Ca.UPF
     MD5 check sum: 3d0b95105a6fbfe7d4b72bf2bbe3cdff
     Pseudo is Norm-conserving, Zval =  2.0
     Generated in analytical, separable form
     Using radial grid of 1169 points,  6 beta functions with: 
                l(1) =   0
                l(2) =   0
                l(3) =   0
                l(4) =   1
                l(5) =   1
                l(6) =   2

     atomic species   valence    mass     pseudopotential
        H              1.00     1.00794     H ( 1.00)
        Ca             2.00    40.07800     Ca( 1.00)

      2 Sym. Ops., with inversion, found



   Cartesian axes

     site n.     atom                  positions (alat units)
         1           Ca  tau(   1) = (   0.0000004   0.0000001  -0.0000000  )
         2           H   tau(   2) = (   0.2886511  -0.0000190  -0.5773351  )
         3           H   tau(   3) = (   0.2886567   0.5773471   0.0000207  )
         4           H   tau(   4) = (   0.5773133   0.2886733   0.0000091  )
         5           H   tau(   5) = (  -0.0000053   0.2886546  -0.5773234  )
         6           H   tau(   6) = (   0.5773087  -0.0000032  -0.2886637  )
         7           H   tau(   7) = (  -0.0000007   0.5773309  -0.2886507  )

     number of k points=  1024 (tetrahedron method)

     Number of k-points >= 100: set verbosity='high' to print them.

     Dense  grid:    11033 G-vectors     FFT dimensions: (  32,  32,  32)

     Estimated max dynamical RAM per process >       3.33 MB

     Estimated total dynamical RAM >      66.57 MB

     The potential is recalculated from file :
     ./_ph0/CaH6.q_3/CaH6.save/charge-density

     Starting wfcs are    6 atomic +    2 random wfcs

     Band Structure Calculation
     Davidson diagonalization with overlap

     ethr =  1.25E-10,  avg # of iterations = 21.3

     total cpu time spent up to now is       56.0 secs

     End of band structure calculation

     Number of k-points >= 100: set verbosity='high' to print the bands.

     the Fermi energy is    10.9382 ev

     Writing config to output data dir ./_ph0/CaH6.q_3/CaH6.save/
 
     [dfpt_tetra]  Dos(E_F)[/Ry] :   0.6513732E+01

     Electron-phonon coefficients for CaH6                                      

     bravais-lattice index     =            0
     lattice parameter (alat)  =       5.2879  a.u.
     unit-cell volume          =     113.8099 (a.u.)^3
     number of atoms/cell      =            7
     number of atomic types    =            2
     kinetic-energy cut-off    =      80.0000  Ry
     charge density cut-off    =     320.0000  Ry
     convergence threshold     =      1.0E-08
     beta                      =       0.7000
     number of iterations used =            4
     Exchange-correlation= PZ
                           (   1   1   0   0   0   0   0)


     celldm(1)=    5.28786  celldm(2)=    0.00000  celldm(3)=    0.00000
     celldm(4)=    0.00000  celldm(5)=    0.00000  celldm(6)=    0.00000

     crystal axes: (cart. coord. in units of alat)
               a(1) = (  0.5773  0.5774  0.5774 )  
               a(2) = (  0.5773 -0.5774 -0.5774 )  
               a(3) = ( -0.5773  0.5773 -0.5773 )  

     reciprocal axes: (cart. coord. in units 2 pi/alat)
               b(1) = (  0.8661  0.8660 -0.0000 )  
               b(2) = (  0.8661  0.0000 -0.8660 )  
               b(3) = (  0.0000  0.8661 -0.8661 )  


     Atoms inside the unit cell: 

     Cartesian axes

     site n.  atom      mass           positions (alat units)
        1     Ca  40.0780   tau(    1) = (    0.00000    0.00000   -0.00000  )
        2     H    1.0079   tau(    2) = (    0.28865   -0.00002   -0.57734  )
        3     H    1.0079   tau(    3) = (    0.28866    0.57735    0.00002  )
        4     H    1.0079   tau(    4) = (    0.57731    0.28867    0.00001  )
        5     H    1.0079   tau(    5) = (   -0.00001    0.28865   -0.57732  )
        6     H    1.0079   tau(    6) = (    0.57731   -0.00000   -0.28866  )
        7     H    1.0079   tau(    7) = (   -0.00000    0.57733   -0.28865  )

     Computing dynamical matrix for 
                    q = (  -0.0000002   0.4330150  -0.0000147 )
 
     No symmetry!

     G cutoff =  226.6471  (    553 G-vectors)     FFT grid: ( 32, 32, 32)
     number of k points=  1024

     PseudoPot. # 1 for H  read from file:
     ./H.UPF
     MD5 check sum: df8e43189db5a2d7f03d0dd74d71ce72
     Pseudo is Norm-conserving, Zval =  1.0
     Generated in analytical, separable form
     Using radial grid of  929 points,  0 beta functions with: 

     PseudoPot. # 2 for Ca read from file:
     ./Ca.UPF
     MD5 check sum: 3d0b95105a6fbfe7d4b72bf2bbe3cdff
     Pseudo is Norm-conserving, Zval =  2.0
     Generated in analytical, separable form
     Using radial grid of 1169 points,  6 beta functions with: 
                l(1) =   0
                l(2) =   0
                l(3) =   0
                l(4) =   1
                l(5) =   1
                l(6) =   2

     Mode symmetry, C_1 (1)     point group:


     Atomic displacements:
     There are   21 irreducible representations

     Representation     1      1 modes -  To be done

     Representation     2      1 modes -  To be done

     Representation     3      1 modes -  To be done

     Representation     4      1 modes -  To be done

     Representation     5      1 modes -  To be done

     Representation     6      1 modes -  To be done

     Representation     7      1 modes -  To be done

     Representation     8      1 modes -  To be done

     Representation     9      1 modes -  To be done

     Representation    10      1 modes -  To be done

     Representation    11      1 modes -  To be done

     Representation    12      1 modes -  To be done

     Representation    13      1 modes -  To be done

     Representation    14      1 modes -  To be done

     Representation    15      1 modes -  To be done

     Representation    16      1 modes -  To be done

     Representation    17      1 modes -  To be done

     Representation    18      1 modes -  To be done

     Representation    19      1 modes -  To be done

     Representation    20      1 modes -  To be done

     Representation    21      1 modes -  To be done



     Alpha used in Ewald sum =   2.8000
     PHONON       :   8m20.44s CPU   9m29.28s WALL



     Representation #   1 mode #   1

     Self-consistent Calculation

      iter #   1 total cpu time :   571.7 secs   av.it.:   3.2
      thresh= 1.000E-02 alpha_mix =  0.700 |ddv_scf|^2 =  1.025E-05

      iter #   2 total cpu time :   575.2 secs   av.it.:   6.1
      thresh= 3.201E-04 alpha_mix =  0.700 |ddv_scf|^2 =  1.258E-04

      iter #   3 total cpu time :   578.4 secs   av.it.:   5.0
      thresh= 1.121E-03 alpha_mix =  0.700 |ddv_scf|^2 =  1.075E-08

      iter #   4 total cpu time :   583.0 secs   av.it.:   6.3
      thresh= 1.037E-05 alpha_mix =  0.700 |ddv_scf|^2 =  1.972E-10

     End of self-consistent calculation

     Convergence has been achieved 


     Representation #   2 mode #   2

     Self-consistent Calculation

      iter #   1 total cpu time :   585.7 secs   av.it.:   3.2
      thresh= 1.000E-02 alpha_mix =  0.700 |ddv_scf|^2 =  1.158E-05

      iter #   2 total cpu time :   589.3 secs   av.it.:   6.0
      thresh= 3.403E-04 alpha_mix =  0.700 |ddv_scf|^2 =  1.426E-04

      iter #   3 total cpu time :   592.4 secs   av.it.:   5.0
      thresh= 1.194E-03 alpha_mix =  0.700 |ddv_scf|^2 =  1.052E-08

      iter #   4 total cpu time :   596.1 secs   av.it.:   6.4
      thresh= 1.026E-05 alpha_mix =  0.700 |ddv_scf|^2 =  2.132E-10

     End of self-consistent calculation

     Convergence has been achieved 


     Representation #   3 mode #   3

     Self-consistent Calculation

      iter #   1 total cpu time :   598.6 secs   av.it.:   3.2
      thresh= 1.000E-02 alpha_mix =  0.700 |ddv_scf|^2 =  4.422E-06

      iter #   2 total cpu time :   602.4 secs   av.it.:   6.1
      thresh= 2.103E-04 alpha_mix =  0.700 |ddv_scf|^2 =  5.311E-05

      iter #   3 total cpu time :   605.6 secs   av.it.:   4.9
      thresh= 7.288E-04 alpha_mix =  0.700 |ddv_scf|^2 =  1.526E-08

      iter #   4 total cpu time :   610.1 secs   av.it.:   6.4
      thresh= 1.235E-05 alpha_mix =  0.700 |ddv_scf|^2 =  2.174E-10

     End of self-consistent calculation

     Convergence has been achieved 


     Representation #   4 mode #   4

     Self-consistent Calculation

      iter #   1 total cpu time :   612.6 secs   av.it.:   3.1
      thresh= 1.000E-02 alpha_mix =  0.700 |ddv_scf|^2 =  2.150E-06

      iter #   2 total cpu time :   616.3 secs   av.it.:   6.1
      thresh= 1.466E-04 alpha_mix =  0.700 |ddv_scf|^2 =  2.301E-05

      iter #   3 total cpu time :   619.5 secs   av.it.:   5.0
      thresh= 4.797E-04 alpha_mix =  0.700 |ddv_scf|^2 =  4.303E-08

      iter #   4 total cpu time :   623.0 secs   av.it.:   5.9
      thresh= 2.074E-05 alpha_mix =  0.700 |ddv_scf|^2 =  1.558E-10

     End of self-consistent calculation

     Convergence has been achieved 


     Representation #   5 mode #   5

     Self-consistent Calculation

      iter #   1 total cpu time :   625.8 secs   av.it.:   3.5
      thresh= 1.000E-02 alpha_mix =  0.700 |ddv_scf|^2 =  1.841E-05

      iter #   2 total cpu time :   630.0 secs   av.it.:   6.0
      thresh= 4.291E-04 alpha_mix =  0.700 |ddv_scf|^2 =  2.238E-04

      iter #   3 total cpu time :   633.2 secs   av.it.:   5.0
      thresh= 1.496E-03 alpha_mix =  0.700 |ddv_scf|^2 =  2.941E-08

      iter #   4 total cpu time :   636.9 secs   av.it.:   6.2
      thresh= 1.715E-05 alpha_mix =  0.700 |ddv_scf|^2 =  4.914E-10

     End of self-consistent calculation

     Convergence has been achieved 


     Representation #   6 mode #   6

     Self-consistent Calculation

      iter #   1 total cpu time :   639.6 secs   av.it.:   3.3
      thresh= 1.000E-02 alpha_mix =  0.700 |ddv_scf|^2 =  2.457E-05

      iter #   2 total cpu time :   643.2 secs   av.it.:   6.0
      thresh= 4.956E-04 alpha_mix =  0.700 |ddv_scf|^2 =  3.091E-04

      iter #   3 total cpu time :   646.4 secs   av.it.:   4.9
      thresh= 1.758E-03 alpha_mix =  0.700 |ddv_scf|^2 =  9.659E-09

     End of self-consistent calculation

     Convergence has been achieved 


     Representation #   7 mode #   7

     Self-consistent Calculation

      iter #   1 total cpu time :   650.1 secs   av.it.:   3.3
      thresh= 1.000E-02 alpha_mix =  0.700 |ddv_scf|^2 =  1.646E-05

      iter #   2 total cpu time :   653.8 secs   av.it.:   6.0
      thresh= 4.057E-04 alpha_mix =  0.700 |ddv_scf|^2 =  2.063E-04

      iter #   3 total cpu time :   657.0 secs   av.it.:   4.9
      thresh= 1.436E-03 alpha_mix =  0.700 |ddv_scf|^2 =  9.158E-09

     End of self-consistent calculation

     Convergence has been achieved 


     Representation #   8 mode #   8

     Self-consistent Calculation

      iter #   1 total cpu time :   659.6 secs   av.it.:   3.2
      thresh= 1.000E-02 alpha_mix =  0.700 |ddv_scf|^2 =  7.656E-06

      iter #   2 total cpu time :   663.2 secs   av.it.:   6.1
      thresh= 2.767E-04 alpha_mix =  0.700 |ddv_scf|^2 =  9.309E-05

      iter #   3 total cpu time :   666.4 secs   av.it.:   5.0
      thresh= 9.648E-04 alpha_mix =  0.700 |ddv_scf|^2 =  1.166E-08

      iter #   4 total cpu time :   670.2 secs   av.it.:   6.3
      thresh= 1.080E-05 alpha_mix =  0.700 |ddv_scf|^2 =  1.637E-10

     End of self-consistent calculation

     Convergence has been achieved 


     Representation #   9 mode #   9

     Self-consistent Calculation

      iter #   1 total cpu time :   673.5 secs   av.it.:   3.2
      thresh= 1.000E-02 alpha_mix =  0.700 |ddv_scf|^2 =  9.456E-06

      iter #   2 total cpu time :   677.1 secs   av.it.:   6.0
      thresh= 3.075E-04 alpha_mix =  0.700 |ddv_scf|^2 =  1.158E-04

      iter #   3 total cpu time :   680.2 secs   av.it.:   5.0
      thresh= 1.076E-03 alpha_mix =  0.700 |ddv_scf|^2 =  1.090E-08

      iter #   4 total cpu time :   684.0 secs   av.it.:   6.3
      thresh= 1.044E-05 alpha_mix =  0.700 |ddv_scf|^2 =  1.872E-10

     End of self-consistent calculation

     Convergence has been achieved 


     Representation #  10 mode #  10

     Self-consistent Calculation

      iter #   1 total cpu time :   686.6 secs   av.it.:   3.2
      thresh= 1.000E-02 alpha_mix =  0.700 |ddv_scf|^2 =  1.222E-05

      iter #   2 total cpu time :   690.2 secs   av.it.:   6.0
      thresh= 3.495E-04 alpha_mix =  0.700 |ddv_scf|^2 =  1.507E-04

      iter #   3 total cpu time :   693.7 secs   av.it.:   4.9
      thresh= 1.227E-03 alpha_mix =  0.700 |ddv_scf|^2 =  1.030E-08

      iter #   4 total cpu time :   697.5 secs   av.it.:   6.4
      thresh= 1.015E-05 alpha_mix =  0.700 |ddv_scf|^2 =  2.238E-10

     End of self-consistent calculation

     Convergence has been achieved 


     Representation #  11 mode #  11

     Self-consistent Calculation

      iter #   1 total cpu time :   700.2 secs   av.it.:   3.3
      thresh= 1.000E-02 alpha_mix =  0.700 |ddv_scf|^2 =  1.189E-05

      iter #   2 total cpu time :   703.8 secs   av.it.:   6.0
      thresh= 3.448E-04 alpha_mix =  0.700 |ddv_scf|^2 =  1.463E-04

      iter #   3 total cpu time :   707.0 secs   av.it.:   5.0
      thresh= 1.210E-03 alpha_mix =  0.700 |ddv_scf|^2 =  1.371E-08

      iter #   4 total cpu time :   711.1 secs   av.it.:   6.4
      thresh= 1.171E-05 alpha_mix =  0.700 |ddv_scf|^2 =  2.572E-10

     End of self-consistent calculation

     Convergence has been achieved 


     Representation #  12 mode #  12

     Self-consistent Calculation

      iter #   1 total cpu time :   713.6 secs   av.it.:   3.2
      thresh= 1.000E-02 alpha_mix =  0.700 |ddv_scf|^2 =  4.878E-06

      iter #   2 total cpu time :   718.0 secs   av.it.:   6.1
      thresh= 2.209E-04 alpha_mix =  0.700 |ddv_scf|^2 =  5.779E-05

      iter #   3 total cpu time :   721.1 secs   av.it.:   5.0
      thresh= 7.602E-04 alpha_mix =  0.700 |ddv_scf|^2 =  1.807E-08

      iter #   4 total cpu time :   724.9 secs   av.it.:   6.2
      thresh= 1.344E-05 alpha_mix =  0.700 |ddv_scf|^2 =  1.364E-10

     End of self-consistent calculation

     Convergence has been achieved 


     Representation #  13 mode #  13

     Self-consistent Calculation

      iter #   1 total cpu time :   727.5 secs   av.it.:   3.3
      thresh= 1.000E-02 alpha_mix =  0.700 |ddv_scf|^2 =  2.300E-05

      iter #   2 total cpu time :   731.1 secs   av.it.:   6.0
      thresh= 4.796E-04 alpha_mix =  0.700 |ddv_scf|^2 =  2.877E-04

      iter #   3 total cpu time :   734.3 secs   av.it.:   4.9
      thresh= 1.696E-03 alpha_mix =  0.700 |ddv_scf|^2 =  7.267E-09

     End of self-consistent calculation

     Convergence has been achieved 


     Representation #  14 mode #  14

     Self-consistent Calculation

      iter #   1 total cpu time :   737.6 secs   av.it.:   3.5
      thresh= 1.000E-02 alpha_mix =  0.700 |ddv_scf|^2 =  7.828E-06

      iter #   2 total cpu time :   741.2 secs   av.it.:   6.1
      thresh= 2.798E-04 alpha_mix =  0.700 |ddv_scf|^2 =  9.283E-05

      iter #   3 total cpu time :   744.4 secs   av.it.:   5.0
      thresh= 9.635E-04 alpha_mix =  0.700 |ddv_scf|^2 =  2.863E-08

      iter #   4 total cpu time :   747.9 secs   av.it.:   6.1
      thresh= 1.692E-05 alpha_mix =  0.700 |ddv_scf|^2 =  3.780E-10

     End of self-consistent calculation

     Convergence has been achieved 


     Representation #  15 mode #  15

     Self-consistent Calculation

      iter #   1 total cpu time :   750.5 secs   av.it.:   3.2
      thresh= 1.000E-02 alpha_mix =  0.700 |ddv_scf|^2 =  1.117E-05

      iter #   2 total cpu time :   754.2 secs   av.it.:   6.0
      thresh= 3.342E-04 alpha_mix =  0.700 |ddv_scf|^2 =  1.371E-04

      iter #   3 total cpu time :   757.3 secs   av.it.:   5.0
      thresh= 1.171E-03 alpha_mix =  0.700 |ddv_scf|^2 =  1.301E-08

      iter #   4 total cpu time :   761.1 secs   av.it.:   6.4
      thresh= 1.141E-05 alpha_mix =  0.700 |ddv_scf|^2 =  2.128E-10

     End of self-consistent calculation

     Convergence has been achieved 


     Representation #  16 mode #  16

     Self-consistent Calculation

      iter #   1 total cpu time :   764.3 secs   av.it.:   3.3
      thresh= 1.000E-02 alpha_mix =  0.700 |ddv_scf|^2 =  1.371E-05

      iter #   2 total cpu time :   768.0 secs   av.it.:   6.0
      thresh= 3.703E-04 alpha_mix =  0.700 |ddv_scf|^2 =  1.706E-04

      iter #   3 total cpu time :   771.1 secs   av.it.:   4.9
      thresh= 1.306E-03 alpha_mix =  0.700 |ddv_scf|^2 =  8.345E-09

     End of self-consistent calculation

     Convergence has been achieved 


     Representation #  17 mode #  17

     Self-consistent Calculation

      iter #   1 total cpu time :   774.0 secs   av.it.:   3.2
      thresh= 1.000E-02 alpha_mix =  0.700 |ddv_scf|^2 =  9.084E-06

      iter #   2 total cpu time :   777.6 secs   av.it.:   6.0
      thresh= 3.014E-04 alpha_mix =  0.700 |ddv_scf|^2 =  1.111E-04

      iter #   3 total cpu time :   780.8 secs   av.it.:   5.0
      thresh= 1.054E-03 alpha_mix =  0.700 |ddv_scf|^2 =  1.093E-08

      iter #   4 total cpu time :   785.1 secs   av.it.:   6.3
      thresh= 1.046E-05 alpha_mix =  0.700 |ddv_scf|^2 =  1.833E-10

     End of self-consistent calculation

     Convergence has been achieved 


     Representation #  18 mode #  18

     Self-consistent Calculation

      iter #   1 total cpu time :   787.9 secs   av.it.:   3.7
      thresh= 1.000E-02 alpha_mix =  0.700 |ddv_scf|^2 =  6.003E-05

      iter #   2 total cpu time :   791.5 secs   av.it.:   6.0
      thresh= 7.748E-04 alpha_mix =  0.700 |ddv_scf|^2 =  7.385E-04

      iter #   3 total cpu time :   794.8 secs   av.it.:   4.9
      thresh= 2.718E-03 alpha_mix =  0.700 |ddv_scf|^2 =  4.926E-08

      iter #   4 total cpu time :   798.6 secs   av.it.:   6.2
      thresh= 2.219E-05 alpha_mix =  0.700 |ddv_scf|^2 =  1.094E-09

     End of self-consistent calculation

     Convergence has been achieved 


     Representation #  19 mode #  19

     Self-consistent Calculation

      iter #   1 total cpu time :   801.2 secs   av.it.:   3.1
      thresh= 1.000E-02 alpha_mix =  0.700 |ddv_scf|^2 =  2.388E-06

      iter #   2 total cpu time :   804.9 secs   av.it.:   6.2
      thresh= 1.545E-04 alpha_mix =  0.700 |ddv_scf|^2 =  2.669E-05

      iter #   3 total cpu time :   808.7 secs   av.it.:   5.0
      thresh= 5.166E-04 alpha_mix =  0.700 |ddv_scf|^2 =  2.857E-08

      iter #   4 total cpu time :   812.4 secs   av.it.:   6.1
      thresh= 1.690E-05 alpha_mix =  0.700 |ddv_scf|^2 =  1.752E-10

     End of self-consistent calculation

     Convergence has been achieved 


     Representation #  20 mode #  20

     Self-consistent Calculation

      iter #   1 total cpu time :   815.2 secs   av.it.:   3.2
      thresh= 1.000E-02 alpha_mix =  0.700 |ddv_scf|^2 =  4.895E-06

      iter #   2 total cpu time :   818.8 secs   av.it.:   6.1
      thresh= 2.212E-04 alpha_mix =  0.700 |ddv_scf|^2 =  5.970E-05

      iter #   3 total cpu time :   822.0 secs   av.it.:   4.9
      thresh= 7.727E-04 alpha_mix =  0.700 |ddv_scf|^2 =  1.492E-08

      iter #   4 total cpu time :   825.7 secs   av.it.:   6.4
      thresh= 1.221E-05 alpha_mix =  0.700 |ddv_scf|^2 =  2.347E-10

     End of self-consistent calculation

     Convergence has been achieved 


     Representation #  21 mode #  21

     Self-consistent Calculation

      iter #   1 total cpu time :   828.8 secs   av.it.:   3.1
      thresh= 1.000E-02 alpha_mix =  0.700 |ddv_scf|^2 =  5.940E-07

      iter #   2 total cpu time :   832.5 secs   av.it.:   6.2
      thresh= 7.707E-05 alpha_mix =  0.700 |ddv_scf|^2 =  3.323E-06

      iter #   3 total cpu time :   835.7 secs   av.it.:   5.1
      thresh= 1.823E-04 alpha_mix =  0.700 |ddv_scf|^2 =  2.061E-07

      iter #   4 total cpu time :   839.1 secs   av.it.:   5.4
      thresh= 4.540E-05 alpha_mix =  0.700 |ddv_scf|^2 =  1.831E-10

     End of self-consistent calculation

     Convergence has been achieved 
 
     Number of q in the star =    2
     List of q in the star:
          1  -0.000000195   0.433014984  -0.000014692
          2   0.000000195  -0.433014984   0.000014692

     Diagonalizing the dynamical matrix

     q = (   -0.000000195   0.433014984  -0.000014692 ) 

 **************************************************************************
     freq (    1) =       4.953934 [THz] =     165.245440 [cm-1]
     freq (    2) =       6.650321 [THz] =     221.830841 [cm-1]
     freq (    3) =       7.243276 [THz] =     241.609672 [cm-1]
     freq (    4) =      14.836099 [THz] =     494.878984 [cm-1]
     freq (    5) =      17.628779 [THz] =     588.032785 [cm-1]
     freq (    6) =      18.634139 [THz] =     621.567983 [cm-1]
     freq (    7) =      20.803787 [THz] =     693.939640 [cm-1]
     freq (    8) =      22.346347 [THz] =     745.393915 [cm-1]
     freq (    9) =      27.519159 [THz] =     917.940327 [cm-1]
     freq (   10) =      28.134477 [THz] =     938.465146 [cm-1]
     freq (   11) =      29.331959 [THz] =     978.408825 [cm-1]
     freq (   12) =      32.566304 [THz] =    1086.294969 [cm-1]
     freq (   13) =      36.290851 [THz] =    1210.532491 [cm-1]
     freq (   14) =      36.842958 [THz] =    1228.948785 [cm-1]
     freq (   15) =      37.109882 [THz] =    1237.852416 [cm-1]
     freq (   16) =      39.587014 [THz] =    1320.480667 [cm-1]
     freq (   17) =      42.013392 [THz] =    1401.415905 [cm-1]
     freq (   18) =      47.270874 [THz] =    1576.786638 [cm-1]
     freq (   19) =      47.992557 [THz] =    1600.859369 [cm-1]
     freq (   20) =      56.337092 [THz] =    1879.203099 [cm-1]
     freq (   21) =      68.966096 [THz] =    2300.461329 [cm-1]
 **************************************************************************

     Mode symmetry, C_1 (1)     point group:

     freq (   1-   1) =        165.2  [cm-1]   --> A                  
     freq (   2-   2) =        221.8  [cm-1]   --> A                  
     freq (   3-   3) =        241.6  [cm-1]   --> A                  
     freq (   4-   4) =        494.9  [cm-1]   --> A                  
     freq (   5-   5) =        588.0  [cm-1]   --> A                  
     freq (   6-   6) =        621.6  [cm-1]   --> A                  
     freq (   7-   7) =        693.9  [cm-1]   --> A                  
     freq (   8-   8) =        745.4  [cm-1]   --> A                  
     freq (   9-   9) =        917.9  [cm-1]   --> A                  
     freq (  10-  10) =        938.5  [cm-1]   --> A                  
     freq (  11-  11) =        978.4  [cm-1]   --> A                  
     freq (  12-  12) =       1086.3  [cm-1]   --> A                  
     freq (  13-  13) =       1210.5  [cm-1]   --> A                  
     freq (  14-  14) =       1228.9  [cm-1]   --> A                  
     freq (  15-  15) =       1237.9  [cm-1]   --> A                  
     freq (  16-  16) =       1320.5  [cm-1]   --> A                  
     freq (  17-  17) =       1401.4  [cm-1]   --> A                  
     freq (  18-  18) =       1576.8  [cm-1]   --> A                  
     freq (  19-  19) =       1600.9  [cm-1]   --> A                  
     freq (  20-  20) =       1879.2  [cm-1]   --> A                  
     freq (  21-  21) =       2300.5  [cm-1]   --> A                  

     Calculation of q =   -0.0000041  -0.0000147   0.4330208
     [opt_tetra]  Optimized tetrahedron method is used.
 
     Parallelization info
     --------------------
     sticks:   dense  smooth     PW     G-vecs:    dense   smooth      PW
     Min          33      33     13                  551      551     128
     Max          34      34     14                  553      553     131
     Sum         673     673    261                11033    11033    2587
 
     Using Slab Decomposition
 

     Title: 
     Electron-phonon coefficients for CaH6                                      


     bravais-lattice index     =            0
     lattice parameter (alat)  =       5.2879  a.u.
     unit-cell volume          =     113.8099 (a.u.)^3
     number of atoms/cell      =            7
     number of atomic types    =            2
     number of electrons       =         8.00
     number of Kohn-Sham states=            8
     kinetic-energy cutoff     =      80.0000  Ry
     charge density cutoff     =     320.0000  Ry
     Exchange-correlation= PZ
                           (   1   1   0   0   0   0   0)

     celldm(1)=   5.287860  celldm(2)=   0.000000  celldm(3)=   0.000000
     celldm(4)=   0.000000  celldm(5)=   0.000000  celldm(6)=   0.000000

     crystal axes: (cart. coord. in units of alat)
               a(1) = (   0.577319   0.577367   0.577365 )  
               a(2) = (   0.577308  -0.577367  -0.577354 )  
               a(3) = (  -0.577319   0.577327  -0.577325 )  

     reciprocal axes: (cart. coord. in units 2 pi/alat)
               b(1) = (  0.866080  0.866030 -0.000038 )  
               b(2) = (  0.866089  0.000029 -0.866050 )  
               b(3) = (  0.000008  0.866059 -0.866071 )  


     PseudoPot. # 1 for H  read from file:
     ./H.UPF
     MD5 check sum: df8e43189db5a2d7f03d0dd74d71ce72
     Pseudo is Norm-conserving, Zval =  1.0
     Generated in analytical, separable form
     Using radial grid of  929 points,  0 beta functions with: 

     PseudoPot. # 2 for Ca read from file:
     ./Ca.UPF
     MD5 check sum: 3d0b95105a6fbfe7d4b72bf2bbe3cdff
     Pseudo is Norm-conserving, Zval =  2.0
     Generated in analytical, separable form
     Using radial grid of 1169 points,  6 beta functions with: 
                l(1) =   0
                l(2) =   0
                l(3) =   0
                l(4) =   1
                l(5) =   1
                l(6) =   2

     atomic species   valence    mass     pseudopotential
        H              1.00     1.00794     H ( 1.00)
        Ca             2.00    40.07800     Ca( 1.00)

      2 Sym. Ops., with inversion, found



   Cartesian axes

     site n.     atom                  positions (alat units)
         1           Ca  tau(   1) = (   0.0000004   0.0000001  -0.0000000  )
         2           H   tau(   2) = (   0.2886511  -0.0000190  -0.5773351  )
         3           H   tau(   3) = (   0.2886567   0.5773471   0.0000207  )
         4           H   tau(   4) = (   0.5773133   0.2886733   0.0000091  )
         5           H   tau(   5) = (  -0.0000053   0.2886546  -0.5773234  )
         6           H   tau(   6) = (   0.5773087  -0.0000032  -0.2886637  )
         7           H   tau(   7) = (  -0.0000007   0.5773309  -0.2886507  )

     number of k points=  1024 (tetrahedron method)

     Number of k-points >= 100: set verbosity='high' to print them.

     Dense  grid:    11033 G-vectors     FFT dimensions: (  32,  32,  32)

     Estimated max dynamical RAM per process >       3.33 MB

     Estimated total dynamical RAM >      66.57 MB

[...]


     Representation #   4 mode #   4

     Self-consistent Calculation

      iter #   1 total cpu time :   902.2 secs   av.it.:   3.2
      thresh= 1.000E-02 alpha_mix =  0.700 |ddv_scf|^2 =  9.863E-06

      iter #   2 total cpu time :   905.9 secs   av.it.:   6.0
      thresh= 3.141E-04 alpha_mix =  0.700 |ddv_scf|^2 =  1.184E-04

      iter #   3 total cpu time :   909.0 secs   av.it.:   5.0
      thresh= 1.088E-03 alpha_mix =  0.700 |ddv_scf|^2 =  1.095E-08

      iter #   4 total cpu time :   912.8 secs   av.it.:   6.4
      thresh= 1.046E-05 alpha_mix =  0.700 |ddv_scf|^2 =  1.938E-10

     End of self-consistent calculation

     Convergence has been achieved 


     Representation #   5 mode #   5

     Self-consistent Calculation

      iter #   1 total cpu time :   915.9 secs   av.it.:   3.7
      thresh= 1.000E-02 alpha_mix =  0.700 |ddv_scf|^2 =  6.200E-05

      iter #   2 total cpu time :   920.3 secs   av.it.:   6.0
      thresh= 7.874E-04 alpha_mix =  0.700 |ddv_scf|^2 =  7.470E-04

      iter #   3 total cpu time :   923.4 secs   av.it.:   5.0
      thresh= 2.733E-03 alpha_mix =  0.700 |ddv_scf|^2 =  4.971E-08

      iter #   4 total cpu time :   927.1 secs   av.it.:   6.2
      thresh= 2.230E-05 alpha_mix =  0.700 |ddv_scf|^2 =  1.099E-09

     End of self-consistent calculation

     Convergence has been achieved 


     Representation #   6 mode #   6

     Self-consistent Calculation

      iter #   1 total cpu time :   929.7 secs   av.it.:   3.1
      thresh= 1.000E-02 alpha_mix =  0.700 |ddv_scf|^2 =  2.812E-06

      iter #   2 total cpu time :   933.4 secs   av.it.:   6.1
      thresh= 1.677E-04 alpha_mix =  0.700 |ddv_scf|^2 =  3.130E-05

      iter #   3 total cpu time :   936.5 secs   av.it.:   5.0
      thresh= 5.595E-04 alpha_mix =  0.700 |ddv_scf|^2 =  2.033E-08

      iter #   4 total cpu time :   941.3 secs   av.it.:   6.1
      thresh= 1.426E-05 alpha_mix =  0.700 |ddv_scf|^2 =  1.017E-10

     End of self-consistent calculation

     Convergence has been achieved 


     Representation #   7 mode #   7

     Self-consistent Calculation

      iter #   1 total cpu time :   943.9 secs   av.it.:   3.2
      thresh= 1.000E-02 alpha_mix =  0.700 |ddv_scf|^2 =  1.098E-05

      iter #   2 total cpu time :   947.6 secs   av.it.:   6.0
      thresh= 3.314E-04 alpha_mix =  0.700 |ddv_scf|^2 =  1.325E-04

      iter #   3 total cpu time :   950.8 secs   av.it.:   5.0
      thresh= 1.151E-03 alpha_mix =  0.700 |ddv_scf|^2 =  9.749E-09

     End of self-consistent calculation

     Convergence has been achieved 


     Representation #   8 mode #   8

     Self-consistent Calculation

      iter #   1 total cpu time :   953.6 secs   av.it.:   3.3
      thresh= 1.000E-02 alpha_mix =  0.700 |ddv_scf|^2 =  1.795E-05

      iter #   2 total cpu time :   957.3 secs   av.it.:   6.0
      thresh= 4.237E-04 alpha_mix =  0.700 |ddv_scf|^2 =  2.202E-04

      iter #   3 total cpu time :   961.2 secs   av.it.:   4.9
      thresh= 1.484E-03 alpha_mix =  0.700 |ddv_scf|^2 =  1.018E-08

      iter #   4 total cpu time :   966.0 secs   av.it.:   6.6
      thresh= 1.009E-05 alpha_mix =  0.700 |ddv_scf|^2 =  4.260E-10

     End of self-consistent calculation

     Convergence has been achieved 


     Representation #   9 mode #   9

     Self-consistent Calculation

      iter #   1 total cpu time :   968.7 secs   av.it.:   3.2
      thresh= 1.000E-02 alpha_mix =  0.700 |ddv_scf|^2 =  8.184E-06

      iter #   2 total cpu time :   972.3 secs   av.it.:   6.1
      thresh= 2.861E-04 alpha_mix =  0.700 |ddv_scf|^2 =  9.805E-05

      iter #   3 total cpu time :   975.6 secs   av.it.:   5.0
      thresh= 9.902E-04 alpha_mix =  0.700 |ddv_scf|^2 =  1.280E-08

      iter #   4 total cpu time :   979.4 secs   av.it.:   6.4
      thresh= 1.131E-05 alpha_mix =  0.700 |ddv_scf|^2 =  2.243E-10

     End of self-consistent calculation

     Convergence has been achieved 


     Representation #  10 mode #  10

     Self-consistent Calculation

      iter #   1 total cpu time :   982.0 secs   av.it.:   3.1
      thresh= 1.000E-02 alpha_mix =  0.700 |ddv_scf|^2 =  1.527E-06

      iter #   2 total cpu time :   986.6 secs   av.it.:   6.2
      thresh= 1.236E-04 alpha_mix =  0.700 |ddv_scf|^2 =  1.475E-05

      iter #   3 total cpu time :   989.9 secs   av.it.:   5.0
      thresh= 3.841E-04 alpha_mix =  0.700 |ddv_scf|^2 =  6.267E-08

      iter #   4 total cpu time :   993.4 secs   av.it.:   5.8
      thresh= 2.503E-05 alpha_mix =  0.700 |ddv_scf|^2 =  1.637E-10

     End of self-consistent calculation

     Convergence has been achieved 


     Representation #  11 mode #  11

     Self-consistent Calculation

      iter #   1 total cpu time :   996.0 secs   av.it.:   3.2
      thresh= 1.000E-02 alpha_mix =  0.700 |ddv_scf|^2 =  5.480E-06

      iter #   2 total cpu time :   999.7 secs   av.it.:   6.1
      thresh= 2.341E-04 alpha_mix =  0.700 |ddv_scf|^2 =  6.578E-05

      iter #   3 total cpu time :  1002.8 secs   av.it.:   4.9
      thresh= 8.111E-04 alpha_mix =  0.700 |ddv_scf|^2 =  1.239E-08

      iter #   4 total cpu time :  1006.7 secs   av.it.:   6.5
      thresh= 1.113E-05 alpha_mix =  0.700 |ddv_scf|^2 =  2.521E-10

     End of self-consistent calculation

     Convergence has been achieved 


     Representation #  12 mode #  12

     Self-consistent Calculation

      iter #   1 total cpu time :  1010.8 secs   av.it.:   3.1
      thresh= 1.000E-02 alpha_mix =  0.700 |ddv_scf|^2 =  4.974E-06

      iter #   2 total cpu time :  1014.7 secs   av.it.:   6.1
      thresh= 2.230E-04 alpha_mix =  0.700 |ddv_scf|^2 =  5.802E-05

      iter #   3 total cpu time :  1017.9 secs   av.it.:   5.0
      thresh= 7.617E-04 alpha_mix =  0.700 |ddv_scf|^2 =  1.415E-08

      iter #   4 total cpu time :  1021.6 secs   av.it.:   6.2
      thresh= 1.189E-05 alpha_mix =  0.700 |ddv_scf|^2 =  1.303E-10

     End of self-consistent calculation

     Convergence has been achieved 


     Representation #  13 mode #  13

     Self-consistent Calculation

      iter #   1 total cpu time :  1024.1 secs   av.it.:   3.1
      thresh= 1.000E-02 alpha_mix =  0.700 |ddv_scf|^2 =  1.078E-06

      iter #   2 total cpu time :  1027.8 secs   av.it.:   6.2
      thresh= 1.038E-04 alpha_mix =  0.700 |ddv_scf|^2 =  9.874E-06

      iter #   3 total cpu time :  1032.2 secs   av.it.:   5.0
      thresh= 3.142E-04 alpha_mix =  0.700 |ddv_scf|^2 =  4.864E-08

      iter #   4 total cpu time :  1035.7 secs   av.it.:   5.7
      thresh= 2.205E-05 alpha_mix =  0.700 |ddv_scf|^2 =  7.879E-11

     End of self-consistent calculation

     Convergence has been achieved 


     Representation #  14 mode #  14

     Self-consistent Calculation

      iter #   1 total cpu time :  1038.5 secs   av.it.:   3.5
      thresh= 1.000E-02 alpha_mix =  0.700 |ddv_scf|^2 =  1.174E-05

      iter #   2 total cpu time :  1042.1 secs   av.it.:   6.0
      thresh= 3.426E-04 alpha_mix =  0.700 |ddv_scf|^2 =  1.383E-04

      iter #   3 total cpu time :  1045.3 secs   av.it.:   5.0
      thresh= 1.176E-03 alpha_mix =  0.700 |ddv_scf|^2 =  2.804E-08

      iter #   4 total cpu time :  1049.0 secs   av.it.:   6.1
      thresh= 1.674E-05 alpha_mix =  0.700 |ddv_scf|^2 =  4.134E-10

     End of self-consistent calculation

     Convergence has been achieved 


     Representation #  15 mode #  15

     Self-consistent Calculation

      iter #   1 total cpu time :  1051.5 secs   av.it.:   3.2
      thresh= 1.000E-02 alpha_mix =  0.700 |ddv_scf|^2 =  1.083E-05

      iter #   2 total cpu time :  1056.1 secs   av.it.:   6.1
      thresh= 3.291E-04 alpha_mix =  0.700 |ddv_scf|^2 =  1.318E-04

      iter #   3 total cpu time :  1059.3 secs   av.it.:   4.9
      thresh= 1.148E-03 alpha_mix =  0.700 |ddv_scf|^2 =  1.034E-08

      iter #   4 total cpu time :  1063.2 secs   av.it.:   6.6
      thresh= 1.017E-05 alpha_mix =  0.700 |ddv_scf|^2 =  3.078E-10

     End of self-consistent calculation

     Convergence has been achieved 


     Representation #  16 mode #  16

     Self-consistent Calculation

      iter #   1 total cpu time :  1065.7 secs   av.it.:   3.3
      thresh= 1.000E-02 alpha_mix =  0.700 |ddv_scf|^2 =  1.456E-05

      iter #   2 total cpu time :  1069.4 secs   av.it.:   6.0
      thresh= 3.816E-04 alpha_mix =  0.700 |ddv_scf|^2 =  1.782E-04

      iter #   3 total cpu time :  1072.6 secs   av.it.:   4.9
      thresh= 1.335E-03 alpha_mix =  0.700 |ddv_scf|^2 =  8.368E-09

     End of self-consistent calculation

     Convergence has been achieved 


     Representation #  17 mode #  17

     Self-consistent Calculation

      iter #   1 total cpu time :  1076.4 secs   av.it.:   3.3
      thresh= 1.000E-02 alpha_mix =  0.700 |ddv_scf|^2 =  1.830E-05

      iter #   2 total cpu time :  1079.9 secs   av.it.:   6.0
      thresh= 4.278E-04 alpha_mix =  0.700 |ddv_scf|^2 =  2.251E-04

      iter #   3 total cpu time :  1083.3 secs   av.it.:   4.9
      thresh= 1.500E-03 alpha_mix =  0.700 |ddv_scf|^2 =  1.135E-08

      iter #   4 total cpu time :  1087.2 secs   av.it.:   6.6
      thresh= 1.065E-05 alpha_mix =  0.700 |ddv_scf|^2 =  4.615E-10

     End of self-consistent calculation

     Convergence has been achieved 


     Representation #  18 mode #  18

     Self-consistent Calculation

      iter #   1 total cpu time :  1089.9 secs   av.it.:   3.5
      thresh= 1.000E-02 alpha_mix =  0.700 |ddv_scf|^2 =  1.018E-05

      iter #   2 total cpu time :  1093.4 secs   av.it.:   6.0
      thresh= 3.191E-04 alpha_mix =  0.700 |ddv_scf|^2 =  1.194E-04

      iter #   3 total cpu time :  1096.5 secs   av.it.:   5.0
      thresh= 1.093E-03 alpha_mix =  0.700 |ddv_scf|^2 =  2.809E-08

      iter #   4 total cpu time :  1100.9 secs   av.it.:   6.1
      thresh= 1.676E-05 alpha_mix =  0.700 |ddv_scf|^2 =  3.945E-10

     End of self-consistent calculation

     Convergence has been achieved 


     Representation #  19 mode #  19

     Self-consistent Calculation

      iter #   1 total cpu time :  1103.5 secs   av.it.:   3.2
      thresh= 1.000E-02 alpha_mix =  0.700 |ddv_scf|^2 =  7.717E-06

      iter #   2 total cpu time :  1107.0 secs   av.it.:   6.1
      thresh= 2.778E-04 alpha_mix =  0.700 |ddv_scf|^2 =  9.206E-05

      iter #   3 total cpu time :  1110.1 secs   av.it.:   5.0
      thresh= 9.595E-04 alpha_mix =  0.700 |ddv_scf|^2 =  1.699E-08

      iter #   4 total cpu time :  1113.8 secs   av.it.:   6.4
      thresh= 1.303E-05 alpha_mix =  0.700 |ddv_scf|^2 =  2.231E-10

     End of self-consistent calculation

     Convergence has been achieved 


     Representation #  20 mode #  20

     Self-consistent Calculation

      iter #   1 total cpu time :  1116.3 secs   av.it.:   3.3
      thresh= 1.000E-02 alpha_mix =  0.700 |ddv_scf|^2 =  1.870E-05

      iter #   2 total cpu time :  1126.8 secs   av.it.:   6.0
      thresh= 4.325E-04 alpha_mix =  0.700 |ddv_scf|^2 =  2.277E-04

      iter #   3 total cpu time :  1129.8 secs   av.it.:   5.0
      thresh= 1.509E-03 alpha_mix =  0.700 |ddv_scf|^2 =  9.811E-09

     End of self-consistent calculation

     Convergence has been achieved 


     Representation #  21 mode #  21

     Self-consistent Calculation

      iter #   1 total cpu time :  1133.2 secs   av.it.:   3.3
      thresh= 1.000E-02 alpha_mix =  0.700 |ddv_scf|^2 =  2.186E-05

      iter #   2 total cpu time :  1136.7 secs   av.it.:   6.0
      thresh= 4.675E-04 alpha_mix =  0.700 |ddv_scf|^2 =  2.666E-04

      iter #   3 total cpu time :  1139.7 secs   av.it.:   4.9
      thresh= 1.633E-03 alpha_mix =  0.700 |ddv_scf|^2 =  9.844E-09

     End of self-consistent calculation

     Convergence has been achieved 
 
     Number of q in the star =    2
     List of q in the star:
          1  -0.000004142  -0.000014692   0.433020773
          2   0.000004142   0.000014692  -0.433020773

     Diagonalizing the dynamical matrix

     q = (   -0.000004142  -0.000014692   0.433020773 ) 

 **************************************************************************
     freq (    1) =       5.632648 [THz] =     187.884927 [cm-1]
     freq (    2) =       6.613906 [THz] =     220.616160 [cm-1]
     freq (    3) =       7.448739 [THz] =     248.463179 [cm-1]
     freq (    4) =      16.385159 [THz] =     546.550065 [cm-1]
     freq (    5) =      19.492741 [THz] =     650.207845 [cm-1]
     freq (    6) =      20.304529 [THz] =     677.286181 [cm-1]
     freq (    7) =      21.290305 [THz] =     710.168141 [cm-1]
     freq (    8) =      22.724136 [THz] =     757.995578 [cm-1]
     freq (    9) =      26.918402 [THz] =     897.901237 [cm-1]
     freq (   10) =      28.217456 [THz] =     941.233016 [cm-1]
     freq (   11) =      29.528376 [THz] =     984.960615 [cm-1]
     freq (   12) =      30.485756 [THz] =    1016.895353 [cm-1]
     freq (   13) =      32.945583 [THz] =    1098.946373 [cm-1]
     freq (   14) =      36.140036 [THz] =    1205.501826 [cm-1]
     freq (   15) =      37.449756 [THz] =    1249.189403 [cm-1]
     freq (   16) =      38.111732 [THz] =    1271.270544 [cm-1]
     freq (   17) =      42.230414 [THz] =    1408.654994 [cm-1]
     freq (   18) =      45.998558 [THz] =    1534.346722 [cm-1]
     freq (   19) =      48.183558 [THz] =    1607.230506 [cm-1]
     freq (   20) =      60.120475 [THz] =    2005.403186 [cm-1]
     freq (   21) =      67.231191 [THz] =    2242.591125 [cm-1]
 **************************************************************************

     Mode symmetry, C_1 (1)     point group:

     freq (   1-   1) =        187.9  [cm-1]   --> A                  
     freq (   2-   2) =        220.6  [cm-1]   --> A                  
     freq (   3-   3) =        248.5  [cm-1]   --> A                  
     freq (   4-   4) =        546.6  [cm-1]   --> A                  
     freq (   5-   5) =        650.2  [cm-1]   --> A                  
     freq (   6-   6) =        677.3  [cm-1]   --> A                  
     freq (   7-   7) =        710.2  [cm-1]   --> A                  
     freq (   8-   8) =        758.0  [cm-1]   --> A                  
     freq (   9-   9) =        897.9  [cm-1]   --> A                  
     freq (  10-  10) =        941.2  [cm-1]   --> A                  
     freq (  11-  11) =        985.0  [cm-1]   --> A                  
     freq (  12-  12) =       1016.9  [cm-1]   --> A                  
     freq (  13-  13) =       1098.9  [cm-1]   --> A                  
     freq (  14-  14) =       1205.5  [cm-1]   --> A                  
     freq (  15-  15) =       1249.2  [cm-1]   --> A                  
     freq (  16-  16) =       1271.3  [cm-1]   --> A                  
     freq (  17-  17) =       1408.7  [cm-1]   --> A                  
     freq (  18-  18) =       1534.3  [cm-1]   --> A                  
     freq (  19-  19) =       1607.2  [cm-1]   --> A                  
     freq (  20-  20) =       2005.4  [cm-1]   --> A                  
     freq (  21-  21) =       2242.6  [cm-1]   --> A                  
 
     init_run     :      0.09s CPU      0.12s WALL (       4 calls)
     electrons    :     69.28s CPU     74.79s WALL (       4 calls)

     Called by init_run:
     wfcinit      :      0.00s CPU      0.01s WALL (       4 calls)
     potinit      :      0.00s CPU      0.01s WALL (       4 calls)
     hinit0       :      0.04s CPU      0.04s WALL (       4 calls)

     Called by electrons:
     c_bands      :     68.69s CPU     74.20s WALL (       4 calls)
     v_of_rho     :      0.00s CPU      0.00s WALL (       5 calls)

     Called by c_bands:
     init_us_2    :      7.16s CPU      8.24s WALL (  249856 calls)
     init_us_2:cp :      6.64s CPU      7.68s WALL (  249856 calls)
     cegterg      :     63.26s CPU     67.23s WALL (    5798 calls)

     Called by *egterg:
     cdiaghg      :     17.03s CPU     18.07s WALL (   91435 calls)
     h_psi        :    599.91s CPU    655.24s WALL ( 1642467 calls)
     g_psi        :      0.21s CPU      0.22s WALL (   87339 calls)

     Called by h_psi:
     h_psi:calbec :     41.64s CPU     45.27s WALL ( 1642467 calls)
     vloc_psi     :    538.85s CPU    588.69s WALL ( 1642467 calls)
     add_vuspsi   :      8.75s CPU      9.75s WALL ( 1642467 calls)

     General routines
     calbec       :     59.10s CPU     64.83s WALL ( 3380213 calls)
     fft          :      0.04s CPU      0.09s WALL (     931 calls)
     ffts         :      5.50s CPU      5.85s WALL (   44772 calls)
     fftw         :    698.10s CPU    765.77s WALL (19734762 calls)
     davcio       :     16.17s CPU     25.20s WALL (  876232 calls)
 
     Parallel routines
 
     PHONON       :  16m46.25s CPU  18m59.99s WALL

     INITIALIZATION: 
     phq_setup    :      0.04s CPU      0.10s WALL (       4 calls)
     phq_init     :      1.05s CPU      1.18s WALL (       4 calls)
 
     phq_init     :      1.05s CPU      1.18s WALL (       4 calls)
     init_vloc    :      0.04s CPU      0.04s WALL (       5 calls)
     init_us_1    :      0.03s CPU      0.03s WALL (       5 calls)
     init_us_2    :      7.16s CPU      8.24s WALL (  249856 calls)
 
     DYNAMICAL MATRIX:
     dynmat0      :      0.81s CPU      0.87s WALL (       4 calls)
     phqscf       :    934.66s CPU   1054.36s WALL (       4 calls)
     dynmatrix    :      0.09s CPU      0.14s WALL (       4 calls)
 
     phqscf       :    934.66s CPU   1054.36s WALL (       4 calls)
     solve_linter :    928.77s CPU   1043.34s WALL (      84 calls)
     drhodv       :      5.81s CPU      6.86s WALL (      84 calls)
 
     dynmat0      :      0.81s CPU      0.87s WALL (       4 calls)
     dynmat_us    :      0.80s CPU      0.85s WALL (       4 calls)
     d2ionq       :      0.01s CPU      0.01s WALL (       4 calls)
 
     dynmat_us    :      0.80s CPU      0.85s WALL (       4 calls)
 
     phqscf       :    934.66s CPU   1054.36s WALL (       4 calls)
     solve_linter :    928.77s CPU   1043.34s WALL (      84 calls)
 
     solve_linter :    928.77s CPU   1043.34s WALL (      84 calls)
     dvqpsi_us    :     33.65s CPU     37.07s WALL (   43008 calls)
     sth_kernel   :    884.90s CPU    978.42s WALL (     304 calls)
     apply_dpot_b :     70.39s CPU     79.66s WALL (  112640 calls)
     ortho        :      4.95s CPU      5.65s WALL (  155648 calls)
     cgsolve      :    653.16s CPU    714.49s WALL (  155648 calls)
     incdrhoscf   :    132.30s CPU    145.94s WALL (  155648 calls)
     dv_of_drho   :      0.04s CPU      0.05s WALL (     304 calls)
     mix_pot      :      0.06s CPU      1.19s WALL (     304 calls)
 
     dvqpsi_us    :     33.65s CPU     37.07s WALL (   43008 calls)
     dvqpsi_us_on :      1.89s CPU      2.09s WALL (   43008 calls)
 
     cgsolve      :    653.16s CPU    714.49s WALL (  155648 calls)
     ch_psi       :    617.93s CPU    675.74s WALL ( 1545234 calls)
 
     ch_psi       :    617.93s CPU    675.74s WALL ( 1545234 calls)
     h_psi        :    599.91s CPU    655.24s WALL ( 1642467 calls)
     last         :     46.92s CPU     51.30s WALL ( 1545234 calls)
 
     h_psi        :    599.91s CPU    655.24s WALL ( 1642467 calls)
     add_vuspsi   :      8.75s CPU      9.75s WALL ( 1642467 calls)
 
     incdrhoscf   :    132.30s CPU    145.94s WALL (  155648 calls)
 
 
      General routines
     calbec       :     59.10s CPU     64.83s WALL ( 3380213 calls)
     fft          :      0.04s CPU      0.09s WALL (     931 calls)
     ffts         :      5.50s CPU      5.85s WALL (   44772 calls)
     fftw         :    698.10s CPU    765.77s WALL (19734762 calls)
     davcio       :     16.17s CPU     25.20s WALL (  876232 calls)
     write_rec    :      0.15s CPU     19.66s WALL (     388 calls)
 
 
     PHONON       :  16m46.25s CPU  18m59.99s WALL

 
   This run was terminated on:   3: 5:22  31May2022            

=------------------------------------------------------------------------------=
   JOB DONE.
=------------------------------------------------------------------------------=
