
     Program PHONON v.6.2 (svn rev. 14038) starts on 24Jul2020 at 12:52:51 

     This program is part of the open-source Quantum ESPRESSO suite
     for quantum simulation of materials; please cite
         "P. Giannozzi et al., J. Phys.:Condens. Matter 21 395502 (2009);
         "P. Giannozzi et al., J. Phys.:Condens. Matter 29 465901 (2017);
          URL http://www.quantum-espresso.org", 
     in publications or presentations arising from this work. More details at
     http://www.quantum-espresso.org/quote

     Parallel version (MPI), running on    32 processors

     MPI processes distributed on     6 nodes
     R & G space division:  proc/nbgrp/npool/nimage =      32

     Reading data from directory:
     ./ThH10.save/

     IMPORTANT: XC functional enforced from input :
     Exchange-correlation      = PBE ( 1  4  3  4 0 0)
     Any further DFT definition will be discarded
     Please, verify this is what you really want

               file H.pbe-mt_fhi.UPF: wavefunction(s)  2p 4f renormalized

     Parallelization info
     --------------------
     sticks:   dense  smooth     PW     G-vecs:    dense   smooth      PW
     Min          35      35     10                  776      776     131
     Max          36      36     11                  779      779     133
     Sum        1123    1123    349                24861    24861    4235



     Dynamical matrices for ( 4, 4, 4)  uniform grid of q-points
     With a half shift
     (  32q-points):
       N         xq(1)         xq(2)         xq(3) 
       1   0.126143773   0.072176899   0.050796268
       2   0.128957428   0.073786815   0.355573876
       3   0.120516462   0.068957066  -0.558758947
       4   0.123330118   0.070566982  -0.253981340
       5   0.127862797   0.359274577  -0.050796268
       6   0.130676453   0.360884493   0.253981340
       7   0.122235487   0.356054744  -0.660351483
       8   0.125049142   0.357664661  -0.355573875
       9   0.122705724  -0.502018458   0.253981340
      10   0.125519379  -0.500408542   0.558758947
      11   0.117078413  -0.505238290  -0.355573875
      12   0.119892068  -0.503628374  -0.050796268
      13   0.124424748  -0.214920780   0.152388804
      14   0.127238403  -0.213310863   0.457166411
      15   0.118797438  -0.218140612  -0.457166411
      16   0.121611093  -0.216530696  -0.152388804
      17   0.373898639  -0.072176899  -0.050796268
      18   0.376712294  -0.070566982   0.253981340
      19   0.368271328  -0.075396731  -0.660351483
      20   0.371084983  -0.073786815  -0.355573875
      21   0.375617663   0.214920780  -0.152388804
      22   0.378431318   0.216530696   0.152388804
      23   0.369990353   0.211700947  -0.761944019
      24   0.372804008   0.213310863  -0.457166411
      25   0.370460589  -0.646372255   0.152388804
      26   0.373274245  -0.644762339   0.457166411
      27   0.364833279  -0.649592088  -0.457166411
      28   0.367646934  -0.647982171  -0.152388804
      29   0.372179614  -0.359274577   0.050796268
      30   0.374993269  -0.357664661   0.355573876
      31   0.366552303  -0.362494409  -0.558758947
      32   0.369365959  -0.360884493  -0.253981340
     Because shifted q grid is used, q2r will not work !

     Calculation of q =    0.3699904   0.2117009  -0.7619440
     [opt_tetra]  Optimized tetrahedron method is used.

     Parallelization info
     --------------------
     sticks:   dense  smooth     PW     G-vecs:    dense   smooth      PW
     Min          35      35     12                  776      776     161
     Max          36      36     13                  779      779     163
     Sum        1123    1123    395                24861    24861    5181


     Title: 
     ThH10phonon                                                                


     bravais-lattice index     =            0
     lattice parameter (alat)  =       6.7096  a.u.
     unit-cell volume          =     215.3294 (a.u.)^3
     number of atoms/cell      =           11
     number of atomic types    =            2
     number of electrons       =        22.00
     number of Kohn-Sham states=           15
     kinetic-energy cutoff     =      90.0000  Ry
     charge density cutoff     =     360.0000  Ry
     Exchange-correlation      = PBE ( 1  4  3  4 0 0)

     celldm(1)=   6.709569  celldm(2)=   0.000000  celldm(3)=   0.000000
     celldm(4)=   0.000000  celldm(5)=   0.000000  celldm(6)=   0.000000

     crystal axes: (cart. coord. in units of alat)
               a(1) = (   0.999915  -0.009236  -0.009182 )  
               a(2) = (   0.499958   0.864541  -0.009182 )  
               a(3) = (   0.499958   0.285102   0.814149 )  

     reciprocal axes: (cart. coord. in units 2 pi/alat)
               b(1) = (  0.991019 -0.577415 -0.406370 )  
               b(2) = (  0.006876  1.148391 -0.406370 )  
               b(3) = (  0.011255  0.006440  1.219110 )  


     PseudoPot. # 1 for Th read from file:
     ./Th2.UPF
     MD5 check sum: 7ed54f42921eb19f1aed96f7ae5ca60c
     Pseudo is Norm-conserving, Zval = 12.0
     Generated using "atomic" code by A. Dal Corso (Quantum ESPRESSO distribution)
     Using radial grid of 1289 points,  3 beta functions with: 
                l(1) =   1
                l(2) =   2
                l(3) =   3

     PseudoPot. # 2 for H  read from file:
     ./H.pbe-mt_fhi.UPF
     MD5 check sum: a51ab2e498800631a519c120141ab865
     Pseudo is Norm-conserving, Zval =  1.0
     Generated using FHI98PP, converted with fhi2upf.x v.5.0.2
     Using radial grid of  387 points,  3 beta functions with: 
                l(1) =   0
                l(2) =   1
                l(3) =   3

     atomic species   valence    mass     pseudopotential
        Th            12.00   232.04000     Th( 1.00)
        H              1.00     1.00782     H ( 1.00)

      2 Sym. Ops., with inversion, found



   Cartesian axes

     site n.     atom                  positions (alat units)
         1           Th  tau(   1) = (   0.9999152   0.5702031   0.3978921  )
         2           H   tau(   2) = (   0.4986279   0.2844916   0.1986309  )
         3           H   tau(   3) = (   1.5012024   0.8559146   0.5971533  )
         4           H   tau(   4) = (   0.2445079   0.1395144   0.0973222  )
         5           H   tau(   5) = (   1.7553225   1.0008919   0.6984620  )
         6           H   tau(   6) = (   0.7525577   0.1346957   0.0929012  )
         7           H   tau(   7) = (   1.2472726   1.0057105   0.7028830  )
         8           H   tau(   8) = (   0.4984560   0.5789972   0.0929984  )
         9           H   tau(   9) = (   1.5013743   0.5614091   0.7027858  )
        10           H   tau(  10) = (   0.4987685   0.2846365   0.5112710  )
        11           H   tau(  11) = (   1.5010619   0.8557697   0.2845132  )

     number of k points=  3456 (tetrahedron method)

     Number of k-points >= 100: set verbosity='high' to print them.

     Dense  grid:    24861 G-vectors     FFT dimensions: (  45,  45,  45)

     Estimated max dynamical RAM per process >       3.20 MB

     Estimated total dynamical RAM >     102.38 MB

     The potential is recalculated from file :
     ./_ph0/ThH10.q_23/ThH10.save/charge-density.dat

     Starting wfc are  176 atomic wfcs

     Band Structure Calculation
     Davidson diagonalization with overlap
     c_bands:  1 eigenvalues not converged
     c_bands:  1 eigenvalues not converged
     c_bands:  1 eigenvalues not converged
     c_bands:  1 eigenvalues not converged
     c_bands:  1 eigenvalues not converged
     c_bands:  1 eigenvalues not converged
     c_bands:  1 eigenvalues not converged
     c_bands:  1 eigenvalues not converged
     c_bands:  1 eigenvalues not converged
     c_bands:  1 eigenvalues not converged
     c_bands:  1 eigenvalues not converged
     c_bands:  1 eigenvalues not converged
     c_bands:  1 eigenvalues not converged
     c_bands:  1 eigenvalues not converged
     c_bands:  1 eigenvalues not converged
     c_bands:  1 eigenvalues not converged
     c_bands:  1 eigenvalues not converged
     c_bands:  1 eigenvalues not converged
     c_bands:  1 eigenvalues not converged
     c_bands:  1 eigenvalues not converged
     c_bands:  1 eigenvalues not converged
     c_bands:  1 eigenvalues not converged
     c_bands:  1 eigenvalues not converged
     c_bands:  1 eigenvalues not converged
     c_bands:  1 eigenvalues not converged
     c_bands:  1 eigenvalues not converged
     c_bands:  1 eigenvalues not converged
     c_bands:  1 eigenvalues not converged
     c_bands:  1 eigenvalues not converged
     c_bands:  1 eigenvalues not converged
     c_bands:  1 eigenvalues not converged
     c_bands:  1 eigenvalues not converged
     c_bands:  1 eigenvalues not converged
     c_bands:  1 eigenvalues not converged
     c_bands:  1 eigenvalues not converged
     c_bands:  1 eigenvalues not converged
     c_bands:  1 eigenvalues not converged
     c_bands:  1 eigenvalues not converged
     c_bands:  1 eigenvalues not converged
     c_bands:  1 eigenvalues not converged
     c_bands:  1 eigenvalues not converged
     c_bands:  1 eigenvalues not converged
     c_bands:  1 eigenvalues not converged
     c_bands:  1 eigenvalues not converged
     c_bands:  1 eigenvalues not converged
     c_bands:  1 eigenvalues not converged
     c_bands:  1 eigenvalues not converged
     c_bands:  1 eigenvalues not converged
     c_bands:  1 eigenvalues not converged
     c_bands:  1 eigenvalues not converged
     c_bands:  1 eigenvalues not converged
     c_bands:  1 eigenvalues not converged
     c_bands:  1 eigenvalues not converged
     c_bands:  1 eigenvalues not converged
     c_bands:  1 eigenvalues not converged
     c_bands:  1 eigenvalues not converged

     ethr =  4.55E-11,  avg # of iterations = 51.8

     total cpu time spent up to now is      745.6 secs

     End of band structure calculation

     Number of k-points >= 100: set verbosity='high' to print the bands.

     the Fermi energy is    21.3864 ev

     Writing output data file ThH10.save
 
     [dfpt_tetra]  Dos(E_F)[/Ry] :   0.7444167E+01

     ThH10phonon                                                                

     bravais-lattice index     =            0
     lattice parameter (alat)  =       6.7096  a.u.
     unit-cell volume          =     215.3294 (a.u.)^3
     number of atoms/cell      =           11
     number of atomic types    =            2
     kinetic-energy cut-off    =      90.0000  Ry
     charge density cut-off    =     360.0000  Ry
     convergence threshold     =      1.0E-08
     beta                      =       0.7000
     number of iterations used =            4
     Exchange-correlation      = PBE ( 1  4  3  4 0 0)


     celldm(1)=    6.70957  celldm(2)=    0.00000  celldm(3)=    0.00000
     celldm(4)=    0.00000  celldm(5)=    0.00000  celldm(6)=    0.00000

     crystal axes: (cart. coord. in units of alat)
               a(1) = (  0.9999 -0.0092 -0.0092 )  
               a(2) = (  0.5000  0.8645 -0.0092 )  
               a(3) = (  0.5000  0.2851  0.8141 )  

     reciprocal axes: (cart. coord. in units 2 pi/alat)
               b(1) = (  0.9910 -0.5774 -0.4064 )  
               b(2) = (  0.0069  1.1484 -0.4064 )  
               b(3) = (  0.0113  0.0064  1.2191 )  


     Atoms inside the unit cell: 

     Cartesian axes

     site n.  atom      mass           positions (alat units)
        1     Th 232.0400   tau(    1) = (    0.99992    0.57020    0.39789  )
        2     H    1.0078   tau(    2) = (    0.49863    0.28449    0.19863  )
        3     H    1.0078   tau(    3) = (    1.50120    0.85591    0.59715  )
        4     H    1.0078   tau(    4) = (    0.24451    0.13951    0.09732  )
        5     H    1.0078   tau(    5) = (    1.75532    1.00089    0.69846  )
        6     H    1.0078   tau(    6) = (    0.75256    0.13470    0.09290  )
        7     H    1.0078   tau(    7) = (    1.24727    1.00571    0.70288  )
        8     H    1.0078   tau(    8) = (    0.49846    0.57900    0.09300  )
        9     H    1.0078   tau(    9) = (    1.50137    0.56141    0.70279  )
       10     H    1.0078   tau(   10) = (    0.49877    0.28464    0.51127  )
       11     H    1.0078   tau(   11) = (    1.50106    0.85577    0.28451  )

     Computing dynamical matrix for 
                    q = (   0.3699904   0.2117009  -0.7619440 )

     No symmetry!

     G cutoff =  410.5178  (    777 G-vectors)     FFT grid: ( 45, 45, 45)
     number of k points=  3456

     PseudoPot. # 1 for Th read from file:
     ./Th2.UPF
     MD5 check sum: 7ed54f42921eb19f1aed96f7ae5ca60c
     Pseudo is Norm-conserving, Zval = 12.0
     Generated using "atomic" code by A. Dal Corso (Quantum ESPRESSO distribution)
     Using radial grid of 1289 points,  3 beta functions with: 
                l(1) =   1
                l(2) =   2
                l(3) =   3

     PseudoPot. # 2 for H  read from file:
     ./H.pbe-mt_fhi.UPF
     MD5 check sum: a51ab2e498800631a519c120141ab865
     Pseudo is Norm-conserving, Zval =  1.0
     Generated using FHI98PP, converted with fhi2upf.x v.5.0.2
     Using radial grid of  387 points,  3 beta functions with: 
                l(1) =   0
                l(2) =   1
                l(3) =   3

     Mode symmetry, C_1 (1)     point group:


     Atomic displacements:
     There are  33 irreducible representations

     Representation     1      1 modes -A  To be done

     Representation     2      1 modes -A  To be done

     Representation     3      1 modes -A  To be done

     Representation     4      1 modes -A  To be done

     Representation     5      1 modes -A  To be done

     Representation     6      1 modes -A  To be done

     Representation     7      1 modes -A  To be done

     Representation     8      1 modes -A  To be done

     Representation     9      1 modes -A  To be done

     Representation    10      1 modes -A  To be done

     Representation    11      1 modes -A  To be done

     Representation    12      1 modes -A  To be done

     Representation    13      1 modes -A  To be done

     Representation    14      1 modes -A  To be done

     Representation    15      1 modes -A  To be done

     Representation    16      1 modes -A  To be done

     Representation    17      1 modes -A  To be done

     Representation    18      1 modes -A  To be done

     Representation    19      1 modes -A  To be done

     Representation    20      1 modes -A  To be done

     Representation    21      1 modes -A  To be done

     Representation    22      1 modes -A  To be done

     Representation    23      1 modes -A  To be done

     Representation    24      1 modes -A  To be done

     Representation    25      1 modes -A  To be done

     Representation    26      1 modes -A  To be done

     Representation    27      1 modes -A  To be done

     Representation    28      1 modes -A  To be done

     Representation    29      1 modes -A  To be done

     Representation    30      1 modes -A  To be done

     Representation    31      1 modes -A  To be done

     Representation    32      1 modes -A  To be done

     Representation    33      1 modes -A  To be done



     Alpha used in Ewald sum =   2.8000
     PHONON       : 13m17.08s CPU    13m44.29s WALL



     Representation #  1 mode #   1

     Self-consistent Calculation

      iter #   1 total cpu time :   866.3 secs   av.it.:   4.2
      thresh= 1.000E-02 alpha_mix =  0.700 |ddv_scf|^2 =  3.978E-07

      iter #   2 total cpu time :   941.1 secs   av.it.:  11.9
      thresh= 6.307E-05 alpha_mix =  0.700 |ddv_scf|^2 =  1.719E-06

      iter #   3 total cpu time :  1004.4 secs   av.it.:  10.3
      thresh= 1.311E-04 alpha_mix =  0.700 |ddv_scf|^2 =  4.496E-08

      iter #   4 total cpu time :  1072.2 secs   av.it.:  10.7
      thresh= 2.120E-05 alpha_mix =  0.700 |ddv_scf|^2 =  2.152E-09

     End of self-consistent calculation

     Convergence has been achieved 


     Representation #  2 mode #   2

     Self-consistent Calculation

      iter #   1 total cpu time :  1112.5 secs   av.it.:   4.2
      thresh= 1.000E-02 alpha_mix =  0.700 |ddv_scf|^2 =  4.623E-07

      iter #   2 total cpu time :  1183.5 secs   av.it.:  11.8
      thresh= 6.799E-05 alpha_mix =  0.700 |ddv_scf|^2 =  2.373E-06

      iter #   3 total cpu time :  1247.6 secs   av.it.:  10.0
      thresh= 1.540E-04 alpha_mix =  0.700 |ddv_scf|^2 =  2.397E-08

      iter #   4 total cpu time :  1315.8 secs   av.it.:  11.0
      thresh= 1.548E-05 alpha_mix =  0.700 |ddv_scf|^2 =  3.236E-09

     End of self-consistent calculation

     Convergence has been achieved 


     Representation #  3 mode #   3

     Self-consistent Calculation

      iter #   1 total cpu time :  1356.9 secs   av.it.:   4.2
      thresh= 1.000E-02 alpha_mix =  0.700 |ddv_scf|^2 =  4.063E-07

      iter #   2 total cpu time :  1429.0 secs   av.it.:  11.9
      thresh= 6.374E-05 alpha_mix =  0.700 |ddv_scf|^2 =  1.670E-06

      iter #   3 total cpu time :  1493.4 secs   av.it.:  10.3
      thresh= 1.292E-04 alpha_mix =  0.700 |ddv_scf|^2 =  4.732E-08

      iter #   4 total cpu time :  1559.6 secs   av.it.:  10.7
      thresh= 2.175E-05 alpha_mix =  0.700 |ddv_scf|^2 =  2.699E-09

     End of self-consistent calculation

     Convergence has been achieved 


     Representation #  4 mode #   4

     Self-consistent Calculation

      iter #   1 total cpu time :  1617.3 secs   av.it.:   7.0
      thresh= 1.000E-02 alpha_mix =  0.700 |ddv_scf|^2 =  5.671E-05

      iter #   2 total cpu time :  1688.3 secs   av.it.:  11.5
      thresh= 7.531E-04 alpha_mix =  0.700 |ddv_scf|^2 =  3.061E-04

      iter #   3 total cpu time :  1751.6 secs   av.it.:   9.8
      thresh= 1.750E-03 alpha_mix =  0.700 |ddv_scf|^2 =  2.790E-06

      iter #   4 total cpu time :  1818.5 secs   av.it.:  10.7
      thresh= 1.670E-04 alpha_mix =  0.700 |ddv_scf|^2 =  3.752E-08

      iter #   5 total cpu time :  1887.6 secs   av.it.:  11.3
      thresh= 1.937E-05 alpha_mix =  0.700 |ddv_scf|^2 =  1.421E-08

      iter #   6 total cpu time :  1952.6 secs   av.it.:  10.4
      thresh= 1.192E-05 alpha_mix =  0.700 |ddv_scf|^2 =  2.275E-10

     End of self-consistent calculation

     Convergence has been achieved 


     Representation #  5 mode #   5

     Self-consistent Calculation

      iter #   1 total cpu time :  1993.9 secs   av.it.:   4.1
      thresh= 1.000E-02 alpha_mix =  0.700 |ddv_scf|^2 =  1.926E-07

      iter #   2 total cpu time :  2066.9 secs   av.it.:  12.0
      thresh= 4.388E-05 alpha_mix =  0.700 |ddv_scf|^2 =  7.109E-07

      iter #   3 total cpu time :  2131.1 secs   av.it.:  10.3
      thresh= 8.432E-05 alpha_mix =  0.700 |ddv_scf|^2 =  3.014E-08

      iter #   4 total cpu time :  2198.5 secs   av.it.:  10.8
      thresh= 1.736E-05 alpha_mix =  0.700 |ddv_scf|^2 =  9.387E-10

     End of self-consistent calculation

     Convergence has been achieved 


     Representation #  6 mode #   6

     Self-consistent Calculation

      iter #   1 total cpu time :  2237.1 secs   av.it.:   4.2
      thresh= 1.000E-02 alpha_mix =  0.700 |ddv_scf|^2 =  1.874E-07

      iter #   2 total cpu time :  2347.5 secs   av.it.:  12.0
      thresh= 4.329E-05 alpha_mix =  0.700 |ddv_scf|^2 =  7.746E-07

      iter #   3 total cpu time :  2413.0 secs   av.it.:  10.2
      thresh= 8.801E-05 alpha_mix =  0.700 |ddv_scf|^2 =  2.218E-08

      iter #   4 total cpu time :  2479.9 secs   av.it.:  10.9
      thresh= 1.489E-05 alpha_mix =  0.700 |ddv_scf|^2 =  8.316E-10

     End of self-consistent calculation

     Convergence has been achieved 


     Representation #  7 mode #   7

     Self-consistent Calculation

      iter #   1 total cpu time :  2520.5 secs   av.it.:   4.3
      thresh= 1.000E-02 alpha_mix =  0.700 |ddv_scf|^2 =  9.381E-07

      iter #   2 total cpu time :  2592.5 secs   av.it.:  11.7
      thresh= 9.685E-05 alpha_mix =  0.700 |ddv_scf|^2 =  5.517E-06

      iter #   3 total cpu time :  2655.6 secs   av.it.:   9.9
      thresh= 2.349E-04 alpha_mix =  0.700 |ddv_scf|^2 =  2.070E-08

      iter #   4 total cpu time :  2725.1 secs   av.it.:  11.2
      thresh= 1.439E-05 alpha_mix =  0.700 |ddv_scf|^2 =  3.465E-09

     End of self-consistent calculation

     Convergence has been achieved 


     Representation #  8 mode #   8

     Self-consistent Calculation

      iter #   1 total cpu time :  2767.1 secs   av.it.:   4.2
      thresh= 1.000E-02 alpha_mix =  0.700 |ddv_scf|^2 =  5.430E-07

      iter #   2 total cpu time :  2839.8 secs   av.it.:  11.8
      thresh= 7.369E-05 alpha_mix =  0.700 |ddv_scf|^2 =  2.744E-06

      iter #   3 total cpu time :  2903.8 secs   av.it.:  10.1
      thresh= 1.657E-04 alpha_mix =  0.700 |ddv_scf|^2 =  3.307E-08

      iter #   4 total cpu time :  2985.2 secs   av.it.:  11.0
      thresh= 1.819E-05 alpha_mix =  0.700 |ddv_scf|^2 =  2.737E-09

     End of self-consistent calculation

     Convergence has been achieved 


     Representation #  9 mode #   9

     Self-consistent Calculation

      iter #   1 total cpu time :  3026.2 secs   av.it.:   4.3
      thresh= 1.000E-02 alpha_mix =  0.700 |ddv_scf|^2 =  1.027E-06

      iter #   2 total cpu time :  3097.0 secs   av.it.:  11.7
      thresh= 1.013E-04 alpha_mix =  0.700 |ddv_scf|^2 =  5.084E-06

      iter #   3 total cpu time :  3159.9 secs   av.it.:  10.1
      thresh= 2.255E-04 alpha_mix =  0.700 |ddv_scf|^2 =  5.130E-08

      iter #   4 total cpu time :  3227.0 secs   av.it.:  10.7
      thresh= 2.265E-05 alpha_mix =  0.700 |ddv_scf|^2 =  2.096E-09

     End of self-consistent calculation

     Convergence has been achieved 


     Representation # 10 mode #  10

     Self-consistent Calculation

      iter #   1 total cpu time :  3267.3 secs   av.it.:   4.2
      thresh= 1.000E-02 alpha_mix =  0.700 |ddv_scf|^2 =  3.902E-07

      iter #   2 total cpu time :  3338.9 secs   av.it.:  11.8
      thresh= 6.246E-05 alpha_mix =  0.700 |ddv_scf|^2 =  1.594E-06

      iter #   3 total cpu time :  3402.5 secs   av.it.:  10.2
      thresh= 1.263E-04 alpha_mix =  0.700 |ddv_scf|^2 =  4.365E-08

      iter #   4 total cpu time :  3469.4 secs   av.it.:  10.8
      thresh= 2.089E-05 alpha_mix =  0.700 |ddv_scf|^2 =  1.961E-09

     End of self-consistent calculation

     Convergence has been achieved 


     Representation # 11 mode #  11

     Self-consistent Calculation

      iter #   1 total cpu time :  3508.8 secs   av.it.:   4.3
      thresh= 1.000E-02 alpha_mix =  0.700 |ddv_scf|^2 =  4.396E-07

      iter #   2 total cpu time :  3581.5 secs   av.it.:  11.8
      thresh= 6.630E-05 alpha_mix =  0.700 |ddv_scf|^2 =  1.622E-06

      iter #   3 total cpu time :  3645.8 secs   av.it.:  10.4
      thresh= 1.274E-04 alpha_mix =  0.700 |ddv_scf|^2 =  2.816E-08

      iter #   4 total cpu time :  3714.2 secs   av.it.:  10.8
      thresh= 1.678E-05 alpha_mix =  0.700 |ddv_scf|^2 =  3.560E-09

     End of self-consistent calculation

     Convergence has been achieved 


     Representation # 12 mode #  12

     Self-consistent Calculation

      iter #   1 total cpu time :  3754.9 secs   av.it.:   4.2
      thresh= 1.000E-02 alpha_mix =  0.700 |ddv_scf|^2 =  6.435E-07

      iter #   2 total cpu time :  3827.8 secs   av.it.:  11.8
      thresh= 8.022E-05 alpha_mix =  0.700 |ddv_scf|^2 =  3.183E-06

      iter #   3 total cpu time :  3892.0 secs   av.it.:  10.1
      thresh= 1.784E-04 alpha_mix =  0.700 |ddv_scf|^2 =  4.078E-08

      iter #   4 total cpu time :  3959.8 secs   av.it.:  10.8
      thresh= 2.019E-05 alpha_mix =  0.700 |ddv_scf|^2 =  3.412E-09

     End of self-consistent calculation

     Convergence has been achieved 


     Representation # 13 mode #  13

     Self-consistent Calculation

      iter #   1 total cpu time :  4001.2 secs   av.it.:   4.2
      thresh= 1.000E-02 alpha_mix =  0.700 |ddv_scf|^2 =  3.511E-07

      iter #   2 total cpu time :  4074.2 secs   av.it.:  12.0
      thresh= 5.925E-05 alpha_mix =  0.700 |ddv_scf|^2 =  1.438E-06

      iter #   3 total cpu time :  4138.0 secs   av.it.:  10.4
      thresh= 1.199E-04 alpha_mix =  0.700 |ddv_scf|^2 =  4.479E-08

      iter #   4 total cpu time :  4204.7 secs   av.it.:  10.7
      thresh= 2.116E-05 alpha_mix =  0.700 |ddv_scf|^2 =  2.076E-09

     End of self-consistent calculation

     Convergence has been achieved 


     Representation # 14 mode #  14

     Self-consistent Calculation

      iter #   1 total cpu time :  4246.7 secs   av.it.:   4.3
      thresh= 1.000E-02 alpha_mix =  0.700 |ddv_scf|^2 =  5.461E-07

      iter #   2 total cpu time :  4319.4 secs   av.it.:  11.8
      thresh= 7.390E-05 alpha_mix =  0.700 |ddv_scf|^2 =  3.110E-06

      iter #   3 total cpu time :  4383.3 secs   av.it.:   9.9
      thresh= 1.763E-04 alpha_mix =  0.700 |ddv_scf|^2 =  1.779E-08

      iter #   4 total cpu time :  4451.5 secs   av.it.:  11.1
      thresh= 1.334E-05 alpha_mix =  0.700 |ddv_scf|^2 =  1.060E-09

     End of self-consistent calculation

     Convergence has been achieved 


     Representation # 15 mode #  15

     Self-consistent Calculation

      iter #   1 total cpu time :  4490.3 secs   av.it.:   4.2
      thresh= 1.000E-02 alpha_mix =  0.700 |ddv_scf|^2 =  5.985E-07

      iter #   2 total cpu time :  4561.9 secs   av.it.:  11.8
      thresh= 7.737E-05 alpha_mix =  0.700 |ddv_scf|^2 =  3.011E-06

      iter #   3 total cpu time :  4625.2 secs   av.it.:  10.1
      thresh= 1.735E-04 alpha_mix =  0.700 |ddv_scf|^2 =  4.277E-08

      iter #   4 total cpu time :  4691.6 secs   av.it.:  10.7
      thresh= 2.068E-05 alpha_mix =  0.700 |ddv_scf|^2 =  2.593E-09

     End of self-consistent calculation

     Convergence has been achieved 


     Representation # 16 mode #  16

     Self-consistent Calculation

      iter #   1 total cpu time :  4730.3 secs   av.it.:   4.3
      thresh= 1.000E-02 alpha_mix =  0.700 |ddv_scf|^2 =  1.025E-06

      iter #   2 total cpu time :  4801.1 secs   av.it.:  11.6
      thresh= 1.013E-04 alpha_mix =  0.700 |ddv_scf|^2 =  5.133E-06

      iter #   3 total cpu time :  4864.0 secs   av.it.:  10.0
      thresh= 2.266E-04 alpha_mix =  0.700 |ddv_scf|^2 =  5.092E-08

      iter #   4 total cpu time :  4930.4 secs   av.it.:  10.7
      thresh= 2.257E-05 alpha_mix =  0.700 |ddv_scf|^2 =  2.076E-09

     End of self-consistent calculation

     Convergence has been achieved 


     Representation # 17 mode #  17

     Self-consistent Calculation

      iter #   1 total cpu time :  4982.3 secs   av.it.:   7.1
      thresh= 1.000E-02 alpha_mix =  0.700 |ddv_scf|^2 =  7.498E-05

      iter #   2 total cpu time :  5051.6 secs   av.it.:  11.5
      thresh= 8.659E-04 alpha_mix =  0.700 |ddv_scf|^2 =  3.261E-04

      iter #   3 total cpu time :  5114.0 secs   av.it.:   9.9
      thresh= 1.806E-03 alpha_mix =  0.700 |ddv_scf|^2 =  3.985E-06

      iter #   4 total cpu time :  5179.3 secs   av.it.:  10.3
      thresh= 1.996E-04 alpha_mix =  0.700 |ddv_scf|^2 =  6.936E-08

      iter #   5 total cpu time :  5247.8 secs   av.it.:  11.1
      thresh= 2.634E-05 alpha_mix =  0.700 |ddv_scf|^2 =  7.841E-09

     End of self-consistent calculation

     Convergence has been achieved 


     Representation # 18 mode #  18

     Self-consistent Calculation

      iter #   1 total cpu time :  5288.3 secs   av.it.:   4.2
      thresh= 1.000E-02 alpha_mix =  0.700 |ddv_scf|^2 =  4.916E-07

      iter #   2 total cpu time :  5360.2 secs   av.it.:  11.9
      thresh= 7.012E-05 alpha_mix =  0.700 |ddv_scf|^2 =  1.958E-06

      iter #   3 total cpu time :  5424.2 secs   av.it.:  10.4
      thresh= 1.399E-04 alpha_mix =  0.700 |ddv_scf|^2 =  4.443E-08

      iter #   4 total cpu time :  5490.7 secs   av.it.:  10.7
      thresh= 2.108E-05 alpha_mix =  0.700 |ddv_scf|^2 =  3.278E-09

     End of self-consistent calculation

     Convergence has been achieved 


     Representation # 19 mode #  19

     Self-consistent Calculation

      iter #   1 total cpu time :  5533.0 secs   av.it.:   4.4
      thresh= 1.000E-02 alpha_mix =  0.700 |ddv_scf|^2 =  9.518E-07

      iter #   2 total cpu time :  5605.2 secs   av.it.:  11.7
      thresh= 9.756E-05 alpha_mix =  0.700 |ddv_scf|^2 =  5.385E-06

      iter #   3 total cpu time :  5668.4 secs   av.it.:  10.0
      thresh= 2.321E-04 alpha_mix =  0.700 |ddv_scf|^2 =  3.156E-08

      iter #   4 total cpu time :  5736.2 secs   av.it.:  10.8
      thresh= 1.776E-05 alpha_mix =  0.700 |ddv_scf|^2 =  2.078E-09

     End of self-consistent calculation

     Convergence has been achieved 


     Representation # 20 mode #  20

     Self-consistent Calculation

      iter #   1 total cpu time :  5775.4 secs   av.it.:   4.2
      thresh= 1.000E-02 alpha_mix =  0.700 |ddv_scf|^2 =  3.508E-07

      iter #   2 total cpu time :  5847.6 secs   av.it.:  11.9
      thresh= 5.923E-05 alpha_mix =  0.700 |ddv_scf|^2 =  1.695E-06

      iter #   3 total cpu time :  5945.0 secs   av.it.:  10.1
      thresh= 1.302E-04 alpha_mix =  0.700 |ddv_scf|^2 =  2.360E-08

      iter #   4 total cpu time :  6013.3 secs   av.it.:  11.0
      thresh= 1.536E-05 alpha_mix =  0.700 |ddv_scf|^2 =  2.954E-09

     End of self-consistent calculation

     Convergence has been achieved 


     Representation # 21 mode #  21

     Self-consistent Calculation

      iter #   1 total cpu time :  6054.0 secs   av.it.:   4.3
      thresh= 1.000E-02 alpha_mix =  0.700 |ddv_scf|^2 =  1.006E-06

      iter #   2 total cpu time :  6125.0 secs   av.it.:  11.7
      thresh= 1.003E-04 alpha_mix =  0.700 |ddv_scf|^2 =  5.993E-06

      iter #   3 total cpu time :  6187.3 secs   av.it.:   9.9
      thresh= 2.448E-04 alpha_mix =  0.700 |ddv_scf|^2 =  2.135E-08

      iter #   4 total cpu time :  6256.4 secs   av.it.:  11.1
      thresh= 1.461E-05 alpha_mix =  0.700 |ddv_scf|^2 =  2.808E-09

     End of self-consistent calculation

     Convergence has been achieved 


     Representation # 22 mode #  22

     Self-consistent Calculation

      iter #   1 total cpu time :  6297.7 secs   av.it.:   4.3
      thresh= 1.000E-02 alpha_mix =  0.700 |ddv_scf|^2 =  1.021E-06

      iter #   2 total cpu time :  6368.8 secs   av.it.:  11.8
      thresh= 1.010E-04 alpha_mix =  0.700 |ddv_scf|^2 =  5.677E-06

      iter #   3 total cpu time :  6432.6 secs   av.it.:  10.1
      thresh= 2.383E-04 alpha_mix =  0.700 |ddv_scf|^2 =  4.230E-08

      iter #   4 total cpu time :  6499.4 secs   av.it.:  10.6
      thresh= 2.057E-05 alpha_mix =  0.700 |ddv_scf|^2 =  2.104E-09

     End of self-consistent calculation

     Convergence has been achieved 


     Representation # 23 mode #  23

     Self-consistent Calculation

      iter #   1 total cpu time :  6537.9 secs   av.it.:   4.2
      thresh= 1.000E-02 alpha_mix =  0.700 |ddv_scf|^2 =  6.748E-07

      iter #   2 total cpu time :  6617.2 secs   av.it.:  11.8
      thresh= 8.214E-05 alpha_mix =  0.700 |ddv_scf|^2 =  3.969E-06

      iter #   3 total cpu time :  6681.4 secs   av.it.:   9.9
      thresh= 1.992E-04 alpha_mix =  0.700 |ddv_scf|^2 =  1.617E-08

      iter #   4 total cpu time :  6755.5 secs   av.it.:  11.3
      thresh= 1.272E-05 alpha_mix =  0.700 |ddv_scf|^2 =  3.869E-09

     End of self-consistent calculation

     Convergence has been achieved 


     Representation # 24 mode #  24

     Self-consistent Calculation

      iter #   1 total cpu time :  6798.0 secs   av.it.:   4.2
      thresh= 1.000E-02 alpha_mix =  0.700 |ddv_scf|^2 =  4.410E-07

      iter #   2 total cpu time :  6880.8 secs   av.it.:  11.9
      thresh= 6.641E-05 alpha_mix =  0.700 |ddv_scf|^2 =  2.348E-06

      iter #   3 total cpu time :  6953.0 secs   av.it.:  10.1
      thresh= 1.532E-04 alpha_mix =  0.700 |ddv_scf|^2 =  1.912E-08

      iter #   4 total cpu time :  7022.2 secs   av.it.:  11.1
      thresh= 1.383E-05 alpha_mix =  0.700 |ddv_scf|^2 =  3.687E-09

     End of self-consistent calculation

     Convergence has been achieved 


     Representation # 25 mode #  25

     Self-consistent Calculation

      iter #   1 total cpu time :  7068.1 secs   av.it.:   4.2
      thresh= 1.000E-02 alpha_mix =  0.700 |ddv_scf|^2 =  7.619E-07

      iter #   2 total cpu time :  7142.7 secs   av.it.:  11.8
      thresh= 8.729E-05 alpha_mix =  0.700 |ddv_scf|^2 =  4.436E-06

      iter #   3 total cpu time :  7211.6 secs   av.it.:   9.9
      thresh= 2.106E-04 alpha_mix =  0.700 |ddv_scf|^2 =  2.210E-08

      iter #   4 total cpu time :  7287.1 secs   av.it.:  11.1
      thresh= 1.487E-05 alpha_mix =  0.700 |ddv_scf|^2 =  1.579E-09

     End of self-consistent calculation

     Convergence has been achieved 


     Representation # 26 mode #  26

     Self-consistent Calculation

      iter #   1 total cpu time :  7336.2 secs   av.it.:   4.2
      thresh= 1.000E-02 alpha_mix =  0.700 |ddv_scf|^2 =  3.049E-07

      iter #   2 total cpu time :  7409.3 secs   av.it.:  12.0
      thresh= 5.522E-05 alpha_mix =  0.700 |ddv_scf|^2 =  1.115E-06

      iter #   3 total cpu time :  7485.5 secs   av.it.:  10.4
      thresh= 1.056E-04 alpha_mix =  0.700 |ddv_scf|^2 =  3.134E-08

      iter #   4 total cpu time :  7553.0 secs   av.it.:  10.8
      thresh= 1.770E-05 alpha_mix =  0.700 |ddv_scf|^2 =  4.798E-09

     End of self-consistent calculation

     Convergence has been achieved 


     Representation # 27 mode #  27

     Self-consistent Calculation

      iter #   1 total cpu time :  7593.0 secs   av.it.:   4.2
      thresh= 1.000E-02 alpha_mix =  0.700 |ddv_scf|^2 =  5.762E-07

      iter #   2 total cpu time :  7669.0 secs   av.it.:  11.8
      thresh= 7.591E-05 alpha_mix =  0.700 |ddv_scf|^2 =  3.023E-06

      iter #   3 total cpu time :  7742.5 secs   av.it.:  10.1
      thresh= 1.739E-04 alpha_mix =  0.700 |ddv_scf|^2 =  2.724E-08

      iter #   4 total cpu time :  7815.6 secs   av.it.:  11.1
      thresh= 1.650E-05 alpha_mix =  0.700 |ddv_scf|^2 =  4.318E-09

     End of self-consistent calculation

     Convergence has been achieved 


     Representation # 28 mode #  28

     Self-consistent Calculation

      iter #   1 total cpu time :  7855.4 secs   av.it.:   4.2
      thresh= 1.000E-02 alpha_mix =  0.700 |ddv_scf|^2 =  2.873E-07

      iter #   2 total cpu time :  7933.0 secs   av.it.:  11.9
      thresh= 5.360E-05 alpha_mix =  0.700 |ddv_scf|^2 =  9.199E-07

      iter #   3 total cpu time :  8001.2 secs   av.it.:  10.5
      thresh= 9.591E-05 alpha_mix =  0.700 |ddv_scf|^2 =  3.446E-08

      iter #   4 total cpu time :  8070.7 secs   av.it.:  10.6
      thresh= 1.856E-05 alpha_mix =  0.700 |ddv_scf|^2 =  2.874E-09

     End of self-consistent calculation

     Convergence has been achieved 


     Representation # 29 mode #  29

     Self-consistent Calculation

      iter #   1 total cpu time :  8117.1 secs   av.it.:   4.2
      thresh= 1.000E-02 alpha_mix =  0.700 |ddv_scf|^2 =  3.688E-07

      iter #   2 total cpu time :  8192.2 secs   av.it.:  11.9
      thresh= 6.073E-05 alpha_mix =  0.700 |ddv_scf|^2 =  1.063E-06

      iter #   3 total cpu time :  8264.6 secs   av.it.:  10.5
      thresh= 1.031E-04 alpha_mix =  0.700 |ddv_scf|^2 =  2.687E-08

      iter #   4 total cpu time :  8331.6 secs   av.it.:  10.8
      thresh= 1.639E-05 alpha_mix =  0.700 |ddv_scf|^2 =  3.279E-09

     End of self-consistent calculation

     Convergence has been achieved 


     Representation # 30 mode #  30

     Self-consistent Calculation

      iter #   1 total cpu time :  8369.1 secs   av.it.:   4.1
      thresh= 1.000E-02 alpha_mix =  0.700 |ddv_scf|^2 =  2.488E-07

      iter #   2 total cpu time :  8442.9 secs   av.it.:  11.9
      thresh= 4.988E-05 alpha_mix =  0.700 |ddv_scf|^2 =  1.021E-06

      iter #   3 total cpu time :  8516.8 secs   av.it.:  10.2
      thresh= 1.010E-04 alpha_mix =  0.700 |ddv_scf|^2 =  2.767E-08

      iter #   4 total cpu time :  8587.5 secs   av.it.:  11.0
      thresh= 1.664E-05 alpha_mix =  0.700 |ddv_scf|^2 =  1.592E-09

     End of self-consistent calculation

     Convergence has been achieved 


     Representation # 31 mode #  31

     Self-consistent Calculation

      iter #   1 total cpu time :  8630.4 secs   av.it.:   4.1
      thresh= 1.000E-02 alpha_mix =  0.700 |ddv_scf|^2 =  1.481E-07

      iter #   2 total cpu time :  8704.6 secs   av.it.:  12.1
      thresh= 3.849E-05 alpha_mix =  0.700 |ddv_scf|^2 =  3.852E-07

      iter #   3 total cpu time :  8772.0 secs   av.it.:  10.6
      thresh= 6.206E-05 alpha_mix =  0.700 |ddv_scf|^2 =  3.541E-08

      iter #   4 total cpu time :  8840.1 secs   av.it.:  10.7
      thresh= 1.882E-05 alpha_mix =  0.700 |ddv_scf|^2 =  1.953E-09

     End of self-consistent calculation

     Convergence has been achieved 


     Representation # 32 mode #  32

     Self-consistent Calculation

      iter #   1 total cpu time :  8890.6 secs   av.it.:   6.5
      thresh= 1.000E-02 alpha_mix =  0.700 |ddv_scf|^2 =  8.047E-06

      iter #   2 total cpu time :  8976.6 secs   av.it.:  11.7
      thresh= 2.837E-04 alpha_mix =  0.700 |ddv_scf|^2 =  2.322E-05

      iter #   3 total cpu time :  9041.5 secs   av.it.:  10.2
      thresh= 4.818E-04 alpha_mix =  0.700 |ddv_scf|^2 =  1.601E-06

      iter #   4 total cpu time :  9108.6 secs   av.it.:  10.6
      thresh= 1.265E-04 alpha_mix =  0.700 |ddv_scf|^2 =  7.974E-08

      iter #   5 total cpu time :  9174.8 secs   av.it.:  10.6
      thresh= 2.824E-05 alpha_mix =  0.700 |ddv_scf|^2 =  1.192E-09

     End of self-consistent calculation

     Convergence has been achieved 


     Representation # 33 mode #  33

     Self-consistent Calculation

      iter #   1 total cpu time :  9214.3 secs   av.it.:   4.2
      thresh= 1.000E-02 alpha_mix =  0.700 |ddv_scf|^2 =  3.990E-07

      iter #   2 total cpu time :  9285.6 secs   av.it.:  11.8
      thresh= 6.316E-05 alpha_mix =  0.700 |ddv_scf|^2 =  1.627E-06

      iter #   3 total cpu time :  9353.1 secs   av.it.:  10.2
      thresh= 1.275E-04 alpha_mix =  0.700 |ddv_scf|^2 =  4.398E-08

      iter #   4 total cpu time :  9425.7 secs   av.it.:  10.8
      thresh= 2.097E-05 alpha_mix =  0.700 |ddv_scf|^2 =  2.527E-09

     End of self-consistent calculation

     Convergence has been achieved 

     Number of q in the star =    2
     List of q in the star:
          1   0.369990353   0.211700947  -0.761944019
          2  -0.369990353  -0.211700947   0.761944019

     Diagonalizing the dynamical matrix

     q = (    0.369990353   0.211700947  -0.761944019 ) 

 **************************************************************************
     freq (    1) =     -39.689102 [THz] =   -1323.885923 [cm-1]
     freq (    2) =       4.362967 [THz] =     145.532900 [cm-1]
     freq (    3) =       5.190458 [THz] =     173.135058 [cm-1]
     freq (    4) =       9.746624 [THz] =     325.112376 [cm-1]
     freq (    5) =      20.240599 [THz] =     675.153705 [cm-1]
     freq (    6) =      21.051750 [THz] =     702.210807 [cm-1]
     freq (    7) =      22.376664 [THz] =     746.405160 [cm-1]
     freq (    8) =      25.444599 [THz] =     848.740469 [cm-1]
     freq (    9) =      26.272849 [THz] =     876.367927 [cm-1]
     freq (   10) =      30.894692 [THz] =    1030.536002 [cm-1]
     freq (   11) =      31.823907 [THz] =    1061.531266 [cm-1]
     freq (   12) =      32.906450 [THz] =    1097.641037 [cm-1]
     freq (   13) =      34.064328 [THz] =    1136.263682 [cm-1]
     freq (   14) =      34.944660 [THz] =    1165.628401 [cm-1]
     freq (   15) =      36.697527 [THz] =    1224.097746 [cm-1]
     freq (   16) =      39.094596 [THz] =    1304.055364 [cm-1]
     freq (   17) =      39.935571 [THz] =    1332.107252 [cm-1]
     freq (   18) =      40.488341 [THz] =    1350.545696 [cm-1]
     freq (   19) =      40.896830 [THz] =    1364.171418 [cm-1]
     freq (   20) =      41.943128 [THz] =    1399.072168 [cm-1]
     freq (   21) =      42.352664 [THz] =    1412.732820 [cm-1]
     freq (   22) =      42.486803 [THz] =    1417.207206 [cm-1]
     freq (   23) =      43.278002 [THz] =    1443.598757 [cm-1]
     freq (   24) =      43.892169 [THz] =    1464.085151 [cm-1]
     freq (   25) =      45.789330 [THz] =    1527.367655 [cm-1]
     freq (   26) =      47.396662 [THz] =    1580.982462 [cm-1]
     freq (   27) =      49.086635 [THz] =    1637.353887 [cm-1]
     freq (   28) =      49.587156 [THz] =    1654.049474 [cm-1]
     freq (   29) =      51.174520 [THz] =    1706.998248 [cm-1]
     freq (   30) =      51.816629 [THz] =    1728.416689 [cm-1]
     freq (   31) =      54.761413 [THz] =    1826.644129 [cm-1]
     freq (   32) =      58.128472 [THz] =    1938.957129 [cm-1]
     freq (   33) =      62.518638 [THz] =    2085.397288 [cm-1]
 **************************************************************************

     Mode symmetry, C_1 (1)     point group:

     freq (  1 -  1) =      -1323.9  [cm-1]   --> A                  
     freq (  2 -  2) =        145.5  [cm-1]   --> A                  
     freq (  3 -  3) =        173.1  [cm-1]   --> A                  
     freq (  4 -  4) =        325.1  [cm-1]   --> A                  
     freq (  5 -  5) =        675.2  [cm-1]   --> A                  
     freq (  6 -  6) =        702.2  [cm-1]   --> A                  
     freq (  7 -  7) =        746.4  [cm-1]   --> A                  
     freq (  8 -  8) =        848.7  [cm-1]   --> A                  
     freq (  9 -  9) =        876.4  [cm-1]   --> A                  
     freq ( 10 - 10) =       1030.5  [cm-1]   --> A                  
     freq ( 11 - 11) =       1061.5  [cm-1]   --> A                  
     freq ( 12 - 12) =       1097.6  [cm-1]   --> A                  
     freq ( 13 - 13) =       1136.3  [cm-1]   --> A                  
     freq ( 14 - 14) =       1165.6  [cm-1]   --> A                  
     freq ( 15 - 15) =       1224.1  [cm-1]   --> A                  
     freq ( 16 - 16) =       1304.1  [cm-1]   --> A                  
     freq ( 17 - 17) =       1332.1  [cm-1]   --> A                  
     freq ( 18 - 18) =       1350.5  [cm-1]   --> A                  
     freq ( 19 - 19) =       1364.2  [cm-1]   --> A                  
     freq ( 20 - 20) =       1399.1  [cm-1]   --> A                  
     freq ( 21 - 21) =       1412.7  [cm-1]   --> A                  
     freq ( 22 - 22) =       1417.2  [cm-1]   --> A                  
     freq ( 23 - 23) =       1443.6  [cm-1]   --> A                  
     freq ( 24 - 24) =       1464.1  [cm-1]   --> A                  
     freq ( 25 - 25) =       1527.4  [cm-1]   --> A                  
     freq ( 26 - 26) =       1581.0  [cm-1]   --> A                  
     freq ( 27 - 27) =       1637.4  [cm-1]   --> A                  
     freq ( 28 - 28) =       1654.0  [cm-1]   --> A                  
     freq ( 29 - 29) =       1707.0  [cm-1]   --> A                  
     freq ( 30 - 30) =       1728.4  [cm-1]   --> A                  
     freq ( 31 - 31) =       1826.6  [cm-1]   --> A                  
     freq ( 32 - 32) =       1939.0  [cm-1]   --> A                  
     freq ( 33 - 33) =       2085.4  [cm-1]   --> A                  

     Calculation of q =    0.3728040   0.2133109  -0.4571664
     [opt_tetra]  Optimized tetrahedron method is used.

     Parallelization info
     --------------------
     sticks:   dense  smooth     PW     G-vecs:    dense   smooth      PW
     Min          35      35     11                  776      776     152
     Max          36      36     12                  779      779     158
     Sum        1123    1123    379                24861    24861    4969


     Title: 
     ThH10phonon                                                                


     bravais-lattice index     =            0
     lattice parameter (alat)  =       6.7096  a.u.
     unit-cell volume          =     215.3294 (a.u.)^3
     number of atoms/cell      =           11
     number of atomic types    =            2
     number of electrons       =        22.00
     number of Kohn-Sham states=           15
     kinetic-energy cutoff     =      90.0000  Ry
     charge density cutoff     =     360.0000  Ry
     Exchange-correlation      = PBE ( 1  4  3  4 0 0)

     celldm(1)=   6.709569  celldm(2)=   0.000000  celldm(3)=   0.000000
     celldm(4)=   0.000000  celldm(5)=   0.000000  celldm(6)=   0.000000

     crystal axes: (cart. coord. in units of alat)
               a(1) = (   0.999915  -0.009236  -0.009182 )  
               a(2) = (   0.499958   0.864541  -0.009182 )  
               a(3) = (   0.499958   0.285102   0.814149 )  

     reciprocal axes: (cart. coord. in units 2 pi/alat)
               b(1) = (  0.991019 -0.577415 -0.406370 )  
               b(2) = (  0.006876  1.148391 -0.406370 )  
               b(3) = (  0.011255  0.006440  1.219110 )  


     PseudoPot. # 1 for Th read from file:
     ./Th2.UPF
     MD5 check sum: 7ed54f42921eb19f1aed96f7ae5ca60c
     Pseudo is Norm-conserving, Zval = 12.0
     Generated using "atomic" code by A. Dal Corso (Quantum ESPRESSO distribution)
     Using radial grid of 1289 points,  3 beta functions with: 
                l(1) =   1
                l(2) =   2
                l(3) =   3

     PseudoPot. # 2 for H  read from file:
     ./H.pbe-mt_fhi.UPF
     MD5 check sum: a51ab2e498800631a519c120141ab865
     Pseudo is Norm-conserving, Zval =  1.0
     Generated using FHI98PP, converted with fhi2upf.x v.5.0.2
     Using radial grid of  387 points,  3 beta functions with: 
                l(1) =   0
                l(2) =   1
                l(3) =   3

     atomic species   valence    mass     pseudopotential
        Th            12.00   232.04000     Th( 1.00)
        H              1.00     1.00782     H ( 1.00)

      2 Sym. Ops., with inversion, found



   Cartesian axes

     site n.     atom                  positions (alat units)
         1           Th  tau(   1) = (   0.9999152   0.5702031   0.3978921  )
         2           H   tau(   2) = (   0.4986279   0.2844916   0.1986309  )
         3           H   tau(   3) = (   1.5012024   0.8559146   0.5971533  )
         4           H   tau(   4) = (   0.2445079   0.1395144   0.0973222  )
         5           H   tau(   5) = (   1.7553225   1.0008919   0.6984620  )
         6           H   tau(   6) = (   0.7525577   0.1346957   0.0929012  )
         7           H   tau(   7) = (   1.2472726   1.0057105   0.7028830  )
         8           H   tau(   8) = (   0.4984560   0.5789972   0.0929984  )
         9           H   tau(   9) = (   1.5013743   0.5614091   0.7027858  )
        10           H   tau(  10) = (   0.4987685   0.2846365   0.5112710  )
        11           H   tau(  11) = (   1.5010619   0.8557697   0.2845132  )

     number of k points=  3456 (tetrahedron method)

     Number of k-points >= 100: set verbosity='high' to print them.

     Dense  grid:    24861 G-vectors     FFT dimensions: (  45,  45,  45)

     Estimated max dynamical RAM per process >       3.18 MB

     Estimated total dynamical RAM >     101.87 MB

     The potential is recalculated from file :
     ./_ph0/ThH10.q_24/ThH10.save/charge-density.dat

     Starting wfc are  176 atomic wfcs

     Band Structure Calculation
     Davidson diagonalization with overlap
     c_bands:  1 eigenvalues not converged
     c_bands:  1 eigenvalues not converged
     c_bands:  1 eigenvalues not converged
     c_bands:  1 eigenvalues not converged
     c_bands:  1 eigenvalues not converged
     c_bands:  1 eigenvalues not converged
     c_bands:  1 eigenvalues not converged
     c_bands:  1 eigenvalues not converged
     c_bands:  1 eigenvalues not converged
     c_bands:  1 eigenvalues not converged
     c_bands:  1 eigenvalues not converged
     c_bands:  1 eigenvalues not converged
     c_bands:  1 eigenvalues not converged
     c_bands:  1 eigenvalues not converged
     c_bands:  1 eigenvalues not converged
     c_bands:  1 eigenvalues not converged
     c_bands:  1 eigenvalues not converged
     c_bands:  1 eigenvalues not converged
     c_bands:  1 eigenvalues not converged
     c_bands:  1 eigenvalues not converged
     c_bands:  1 eigenvalues not converged
     c_bands:  1 eigenvalues not converged
     c_bands:  1 eigenvalues not converged
     c_bands:  1 eigenvalues not converged
     c_bands:  1 eigenvalues not converged
     c_bands:  1 eigenvalues not converged
     c_bands:  1 eigenvalues not converged
     c_bands:  1 eigenvalues not converged
     c_bands:  1 eigenvalues not converged
     c_bands:  1 eigenvalues not converged
     c_bands:  1 eigenvalues not converged
     c_bands:  1 eigenvalues not converged
     c_bands:  1 eigenvalues not converged
     c_bands:  1 eigenvalues not converged
     c_bands:  1 eigenvalues not converged
     c_bands:  1 eigenvalues not converged
     c_bands:  1 eigenvalues not converged
     c_bands:  1 eigenvalues not converged
     c_bands:  1 eigenvalues not converged
     c_bands:  1 eigenvalues not converged
     c_bands:  1 eigenvalues not converged
     c_bands:  1 eigenvalues not converged
     c_bands:  1 eigenvalues not converged
     c_bands:  1 eigenvalues not converged
     c_bands:  1 eigenvalues not converged
     c_bands:  1 eigenvalues not converged
     c_bands:  1 eigenvalues not converged
     c_bands:  1 eigenvalues not converged
     c_bands:  1 eigenvalues not converged
     c_bands:  1 eigenvalues not converged
     c_bands:  1 eigenvalues not converged
     c_bands:  1 eigenvalues not converged
     c_bands:  1 eigenvalues not converged
     c_bands:  1 eigenvalues not converged
     c_bands:  1 eigenvalues not converged
     c_bands:  1 eigenvalues not converged

     ethr =  4.55E-11,  avg # of iterations = 51.8

     total cpu time spent up to now is     1525.8 secs

     End of band structure calculation

     Number of k-points >= 100: set verbosity='high' to print the bands.

     the Fermi energy is    21.3864 ev

     Writing output data file ThH10.save
 
     [dfpt_tetra]  Dos(E_F)[/Ry] :   0.7444167E+01

     ThH10phonon                                                                

     bravais-lattice index     =            0
     lattice parameter (alat)  =       6.7096  a.u.
     unit-cell volume          =     215.3294 (a.u.)^3
     number of atoms/cell      =           11
     number of atomic types    =            2
     kinetic-energy cut-off    =      90.0000  Ry
     charge density cut-off    =     360.0000  Ry
     convergence threshold     =      1.0E-08
     beta                      =       0.7000
     number of iterations used =            4
     Exchange-correlation      = PBE ( 1  4  3  4 0 0)


     celldm(1)=    6.70957  celldm(2)=    0.00000  celldm(3)=    0.00000
     celldm(4)=    0.00000  celldm(5)=    0.00000  celldm(6)=    0.00000

     crystal axes: (cart. coord. in units of alat)
               a(1) = (  0.9999 -0.0092 -0.0092 )  
               a(2) = (  0.5000  0.8645 -0.0092 )  
               a(3) = (  0.5000  0.2851  0.8141 )  

     reciprocal axes: (cart. coord. in units 2 pi/alat)
               b(1) = (  0.9910 -0.5774 -0.4064 )  
               b(2) = (  0.0069  1.1484 -0.4064 )  
               b(3) = (  0.0113  0.0064  1.2191 )  


     Atoms inside the unit cell: 

     Cartesian axes

     site n.  atom      mass           positions (alat units)
        1     Th 232.0400   tau(    1) = (    0.99992    0.57020    0.39789  )
        2     H    1.0078   tau(    2) = (    0.49863    0.28449    0.19863  )
        3     H    1.0078   tau(    3) = (    1.50120    0.85591    0.59715  )
        4     H    1.0078   tau(    4) = (    0.24451    0.13951    0.09732  )
        5     H    1.0078   tau(    5) = (    1.75532    1.00089    0.69846  )
        6     H    1.0078   tau(    6) = (    0.75256    0.13470    0.09290  )
        7     H    1.0078   tau(    7) = (    1.24727    1.00571    0.70288  )
        8     H    1.0078   tau(    8) = (    0.49846    0.57900    0.09300  )
        9     H    1.0078   tau(    9) = (    1.50137    0.56141    0.70279  )
       10     H    1.0078   tau(   10) = (    0.49877    0.28464    0.51127  )
       11     H    1.0078   tau(   11) = (    1.50106    0.85577    0.28451  )

     Computing dynamical matrix for 
                    q = (   0.3728040   0.2133109  -0.4571664 )

     No symmetry!

     G cutoff =  410.5178  (    777 G-vectors)     FFT grid: ( 45, 45, 45)
     number of k points=  3456

     PseudoPot. # 1 for Th read from file:
     ./Th2.UPF
     MD5 check sum: 7ed54f42921eb19f1aed96f7ae5ca60c
     Pseudo is Norm-conserving, Zval = 12.0
     Generated using "atomic" code by A. Dal Corso (Quantum ESPRESSO distribution)
     Using radial grid of 1289 points,  3 beta functions with: 
                l(1) =   1
                l(2) =   2
                l(3) =   3

     PseudoPot. # 2 for H  read from file:
     ./H.pbe-mt_fhi.UPF
     MD5 check sum: a51ab2e498800631a519c120141ab865
     Pseudo is Norm-conserving, Zval =  1.0
     Generated using FHI98PP, converted with fhi2upf.x v.5.0.2
     Using radial grid of  387 points,  3 beta functions with: 
                l(1) =   0
                l(2) =   1
                l(3) =   3

     Mode symmetry, C_1 (1)     point group:


     Atomic displacements:
     There are  33 irreducible representations

     Representation     1      1 modes -A  To be done

     Representation     2      1 modes -A  To be done

     Representation     3      1 modes -A  To be done

     Representation     4      1 modes -A  To be done

     Representation     5      1 modes -A  To be done

     Representation     6      1 modes -A  To be done

     Representation     7      1 modes -A  To be done

     Representation     8      1 modes -A  To be done

     Representation     9      1 modes -A  To be done

     Representation    10      1 modes -A  To be done

     Representation    11      1 modes -A  To be done

     Representation    12      1 modes -A  To be done

     Representation    13      1 modes -A  To be done

     Representation    14      1 modes -A  To be done

     Representation    15      1 modes -A  To be done

     Representation    16      1 modes -A  To be done

     Representation    17      1 modes -A  To be done

     Representation    18      1 modes -A  To be done

     Representation    19      1 modes -A  To be done

     Representation    20      1 modes -A  To be done

     Representation    21      1 modes -A  To be done

     Representation    22      1 modes -A  To be done

     Representation    23      1 modes -A  To be done

     Representation    24      1 modes -A  To be done

     Representation    25      1 modes -A  To be done

     Representation    26      1 modes -A  To be done

     Representation    27      1 modes -A  To be done

     Representation    28      1 modes -A  To be done

     Representation    29      1 modes -A  To be done

     Representation    30      1 modes -A  To be done

     Representation    31      1 modes -A  To be done

     Representation    32      1 modes -A  To be done

     Representation    33      1 modes -A  To be done



     Alpha used in Ewald sum =   2.8000
     PHONON       :     2h44m CPU        2h50m WALL



     Representation #  1 mode #   1

     Self-consistent Calculation

      iter #   1 total cpu time : 10379.5 secs   av.it.:   4.3
      thresh= 1.000E-02 alpha_mix =  0.700 |ddv_scf|^2 =  9.222E-07

      iter #   2 total cpu time : 10732.6 secs   av.it.:  11.7
      thresh= 9.603E-05 alpha_mix =  0.700 |ddv_scf|^2 =  5.178E-06

      iter #   3 total cpu time : 10870.2 secs   av.it.:   9.9
      thresh= 2.275E-04 alpha_mix =  0.700 |ddv_scf|^2 =  4.061E-08

      iter #   4 total cpu time : 11017.4 secs   av.it.:  10.9
      thresh= 2.015E-05 alpha_mix =  0.700 |ddv_scf|^2 =  1.128E-09

     End of self-consistent calculation

     Convergence has been achieved 


     Representation #  2 mode #   2

     Self-consistent Calculation

      iter #   1 total cpu time : 11103.9 secs   av.it.:   4.1
      thresh= 1.000E-02 alpha_mix =  0.700 |ddv_scf|^2 =  2.491E-07

      iter #   2 total cpu time : 11262.6 secs   av.it.:  11.8
      thresh= 4.991E-05 alpha_mix =  0.700 |ddv_scf|^2 =  7.690E-07

      iter #   3 total cpu time : 11399.8 secs   av.it.:  10.4
      thresh= 8.769E-05 alpha_mix =  0.700 |ddv_scf|^2 =  5.015E-08

      iter #   4 total cpu time : 11532.9 secs   av.it.:  10.6
      thresh= 2.239E-05 alpha_mix =  0.700 |ddv_scf|^2 =  1.185E-09

     End of self-consistent calculation

     Convergence has been achieved 


     Representation #  3 mode #   3

     Self-consistent Calculation

      iter #   1 total cpu time : 11615.7 secs   av.it.:   4.2
      thresh= 1.000E-02 alpha_mix =  0.700 |ddv_scf|^2 =  8.802E-07

      iter #   2 total cpu time : 11765.9 secs   av.it.:  11.7
      thresh= 9.382E-05 alpha_mix =  0.700 |ddv_scf|^2 =  4.948E-06

      iter #   3 total cpu time : 11905.6 secs   av.it.:   9.9
      thresh= 2.224E-04 alpha_mix =  0.700 |ddv_scf|^2 =  3.753E-08

      iter #   4 total cpu time : 12042.6 secs   av.it.:  10.8
      thresh= 1.937E-05 alpha_mix =  0.700 |ddv_scf|^2 =  1.156E-09

     End of self-consistent calculation

     Convergence has been achieved 


     Representation #  4 mode #   4

     Self-consistent Calculation

      iter #   1 total cpu time : 12151.8 secs   av.it.:   7.0
      thresh= 1.000E-02 alpha_mix =  0.700 |ddv_scf|^2 =  5.645E-05

      iter #   2 total cpu time : 12291.7 secs   av.it.:  11.5
      thresh= 7.513E-04 alpha_mix =  0.700 |ddv_scf|^2 =  3.008E-04

      iter #   3 total cpu time : 12418.2 secs   av.it.:   9.7
      thresh= 1.734E-03 alpha_mix =  0.700 |ddv_scf|^2 =  3.221E-06

      iter #   4 total cpu time : 12558.4 secs   av.it.:  10.7
      thresh= 1.795E-04 alpha_mix =  0.700 |ddv_scf|^2 =  4.247E-08

      iter #   5 total cpu time : 12703.0 secs   av.it.:  11.3
      thresh= 2.061E-05 alpha_mix =  0.700 |ddv_scf|^2 =  4.259E-09

     End of self-consistent calculation

     Convergence has been achieved 


     Representation #  5 mode #   5

     Self-consistent Calculation

      iter #   1 total cpu time : 12781.8 secs   av.it.:   4.1
      thresh= 1.000E-02 alpha_mix =  0.700 |ddv_scf|^2 =  2.749E-07

      iter #   2 total cpu time : 12938.9 secs   av.it.:  11.9
      thresh= 5.243E-05 alpha_mix =  0.700 |ddv_scf|^2 =  1.057E-06

      iter #   3 total cpu time : 13244.2 secs   av.it.:  10.3
      thresh= 1.028E-04 alpha_mix =  0.700 |ddv_scf|^2 =  4.205E-08

      iter #   4 total cpu time : 13501.8 secs   av.it.:  10.8
      thresh= 2.051E-05 alpha_mix =  0.700 |ddv_scf|^2 =  1.024E-09

     End of self-consistent calculation

     Convergence has been achieved 


     Representation #  6 mode #   6

     Self-consistent Calculation

      iter #   1 total cpu time : 13585.9 secs   av.it.:   4.2
      thresh= 1.000E-02 alpha_mix =  0.700 |ddv_scf|^2 =  2.038E-07

      iter #   2 total cpu time : 13748.2 secs   av.it.:  11.9
      thresh= 4.514E-05 alpha_mix =  0.700 |ddv_scf|^2 =  7.066E-07

      iter #   3 total cpu time : 13899.6 secs   av.it.:  10.3
      thresh= 8.406E-05 alpha_mix =  0.700 |ddv_scf|^2 =  3.831E-08

      iter #   4 total cpu time : 14047.4 secs   av.it.:  10.6
      thresh= 1.957E-05 alpha_mix =  0.700 |ddv_scf|^2 =  6.800E-10

     End of self-consistent calculation

     Convergence has been achieved 


     Representation #  7 mode #   7

     Self-consistent Calculation

      iter #   1 total cpu time : 14128.9 secs   av.it.:   4.2
      thresh= 1.000E-02 alpha_mix =  0.700 |ddv_scf|^2 =  2.255E-07

      iter #   2 total cpu time : 14292.6 secs   av.it.:  12.0
      thresh= 4.748E-05 alpha_mix =  0.700 |ddv_scf|^2 =  6.345E-07

      iter #   3 total cpu time : 14443.7 secs   av.it.:  10.5
      thresh= 7.966E-05 alpha_mix =  0.700 |ddv_scf|^2 =  5.311E-08

      iter #   4 total cpu time : 14576.9 secs   av.it.:  10.5
      thresh= 2.305E-05 alpha_mix =  0.700 |ddv_scf|^2 =  1.192E-09

     End of self-consistent calculation

     Convergence has been achieved 


     Representation #  8 mode #   8

     Self-consistent Calculation

      iter #   1 total cpu time : 14646.6 secs   av.it.:   4.2
      thresh= 1.000E-02 alpha_mix =  0.700 |ddv_scf|^2 =  3.774E-07

      iter #   2 total cpu time : 14799.5 secs   av.it.:  11.8
      thresh= 6.143E-05 alpha_mix =  0.700 |ddv_scf|^2 =  1.664E-06

      iter #   3 total cpu time : 14931.1 secs   av.it.:  10.1
      thresh= 1.290E-04 alpha_mix =  0.700 |ddv_scf|^2 =  4.289E-08

      iter #   4 total cpu time : 15075.5 secs   av.it.:  10.8
      thresh= 2.071E-05 alpha_mix =  0.700 |ddv_scf|^2 =  8.697E-10

     End of self-consistent calculation

     Convergence has been achieved 


     Representation #  9 mode #   9

     Self-consistent Calculation

      iter #   1 total cpu time : 15158.7 secs   av.it.:   4.2
      thresh= 1.000E-02 alpha_mix =  0.700 |ddv_scf|^2 =  3.463E-07

      iter #   2 total cpu time : 15310.2 secs   av.it.:  11.7
      thresh= 5.885E-05 alpha_mix =  0.700 |ddv_scf|^2 =  1.193E-06

      iter #   3 total cpu time : 15449.3 secs   av.it.:  10.2
      thresh= 1.092E-04 alpha_mix =  0.700 |ddv_scf|^2 =  5.788E-08

      iter #   4 total cpu time : 15578.0 secs   av.it.:  10.6
      thresh= 2.406E-05 alpha_mix =  0.700 |ddv_scf|^2 =  1.269E-09

     End of self-consistent calculation

     Convergence has been achieved 


     Representation # 10 mode #  10

     Self-consistent Calculation

      iter #   1 total cpu time : 15621.3 secs   av.it.:   4.2
      thresh= 1.000E-02 alpha_mix =  0.700 |ddv_scf|^2 =  6.733E-07

      iter #   2 total cpu time : 15691.4 secs   av.it.:  11.7
      thresh= 8.205E-05 alpha_mix =  0.700 |ddv_scf|^2 =  3.449E-06

      iter #   3 total cpu time : 15758.6 secs   av.it.:   9.9
      thresh= 1.857E-04 alpha_mix =  0.700 |ddv_scf|^2 =  4.280E-08

      iter #   4 total cpu time : 15826.3 secs   av.it.:  11.0
      thresh= 2.069E-05 alpha_mix =  0.700 |ddv_scf|^2 =  1.062E-09

     End of self-consistent calculation

     Convergence has been achieved 


     Representation # 11 mode #  11

     Self-consistent Calculation

      iter #   1 total cpu time : 15868.8 secs   av.it.:   4.3
      thresh= 1.000E-02 alpha_mix =  0.700 |ddv_scf|^2 =  7.067E-07

      iter #   2 total cpu time : 15947.2 secs   av.it.:  11.6
      thresh= 8.406E-05 alpha_mix =  0.700 |ddv_scf|^2 =  3.772E-06

      iter #   3 total cpu time : 16008.7 secs   av.it.:   9.8
      thresh= 1.942E-04 alpha_mix =  0.700 |ddv_scf|^2 =  3.989E-08

      iter #   4 total cpu time : 16075.2 secs   av.it.:  10.6
      thresh= 1.997E-05 alpha_mix =  0.700 |ddv_scf|^2 =  8.248E-10

     End of self-consistent calculation

     Convergence has been achieved 


     Representation # 12 mode #  12

     Self-consistent Calculation

      iter #   1 total cpu time : 16117.0 secs   av.it.:   4.2
      thresh= 1.000E-02 alpha_mix =  0.700 |ddv_scf|^2 =  5.346E-07

      iter #   2 total cpu time : 16189.8 secs   av.it.:  11.7
      thresh= 7.312E-05 alpha_mix =  0.700 |ddv_scf|^2 =  2.514E-06

      iter #   3 total cpu time : 16253.6 secs   av.it.:  10.1
      thresh= 1.586E-04 alpha_mix =  0.700 |ddv_scf|^2 =  4.765E-08

      iter #   4 total cpu time : 16324.8 secs   av.it.:  10.8
      thresh= 2.183E-05 alpha_mix =  0.700 |ddv_scf|^2 =  1.471E-09

     End of self-consistent calculation

     Convergence has been achieved 


     Representation # 13 mode #  13

     Self-consistent Calculation

      iter #   1 total cpu time : 16365.6 secs   av.it.:   4.3
      thresh= 1.000E-02 alpha_mix =  0.700 |ddv_scf|^2 =  8.864E-07

      iter #   2 total cpu time : 16550.7 secs   av.it.:  11.7
      thresh= 9.415E-05 alpha_mix =  0.700 |ddv_scf|^2 =  5.062E-06

      iter #   3 total cpu time : 16632.5 secs   av.it.:   9.9
      thresh= 2.250E-04 alpha_mix =  0.700 |ddv_scf|^2 =  3.560E-08

      iter #   4 total cpu time : 16756.1 secs   av.it.:  11.0
      thresh= 1.887E-05 alpha_mix =  0.700 |ddv_scf|^2 =  1.221E-09

     End of self-consistent calculation

     Convergence has been achieved 


     Representation # 14 mode #  14

     Self-consistent Calculation

      iter #   1 total cpu time : 16805.3 secs   av.it.:   4.2
      thresh= 1.000E-02 alpha_mix =  0.700 |ddv_scf|^2 =  3.525E-07

      iter #   2 total cpu time : 16876.5 secs   av.it.:  11.8
      thresh= 5.937E-05 alpha_mix =  0.700 |ddv_scf|^2 =  1.624E-06

      iter #   3 total cpu time : 16949.3 secs   av.it.:  10.1
      thresh= 1.274E-04 alpha_mix =  0.700 |ddv_scf|^2 =  3.485E-08

      iter #   4 total cpu time : 17015.1 secs   av.it.:  10.8
      thresh= 1.867E-05 alpha_mix =  0.700 |ddv_scf|^2 =  9.438E-10

     End of self-consistent calculation

     Convergence has been achieved 


     Representation # 15 mode #  15

     Self-consistent Calculation

      iter #   1 total cpu time : 17058.2 secs   av.it.:   4.3
      thresh= 1.000E-02 alpha_mix =  0.700 |ddv_scf|^2 =  9.034E-07

      iter #   2 total cpu time : 17130.5 secs   av.it.:  11.7
      thresh= 9.505E-05 alpha_mix =  0.700 |ddv_scf|^2 =  4.970E-06

      iter #   3 total cpu time : 17194.7 secs   av.it.:   9.9
      thresh= 2.229E-04 alpha_mix =  0.700 |ddv_scf|^2 =  4.467E-08

      iter #   4 total cpu time : 17265.5 secs   av.it.:  10.9
      thresh= 2.113E-05 alpha_mix =  0.700 |ddv_scf|^2 =  1.096E-09

     End of self-consistent calculation

     Convergence has been achieved 


     Representation # 16 mode #  16

     Self-consistent Calculation

      iter #   1 total cpu time : 17307.3 secs   av.it.:   4.2
      thresh= 1.000E-02 alpha_mix =  0.700 |ddv_scf|^2 =  3.546E-07

      iter #   2 total cpu time : 17379.9 secs   av.it.:  11.8
      thresh= 5.955E-05 alpha_mix =  0.700 |ddv_scf|^2 =  1.383E-06

      iter #   3 total cpu time : 17445.8 secs   av.it.:  10.2
      thresh= 1.176E-04 alpha_mix =  0.700 |ddv_scf|^2 =  5.442E-08

      iter #   4 total cpu time : 17515.6 secs   av.it.:  10.6
      thresh= 2.333E-05 alpha_mix =  0.700 |ddv_scf|^2 =  9.065E-10

     End of self-consistent calculation

     Convergence has been achieved 


     Representation # 17 mode #  17

     Self-consistent Calculation

      iter #   1 total cpu time : 17567.4 secs   av.it.:   7.1
      thresh= 1.000E-02 alpha_mix =  0.700 |ddv_scf|^2 =  6.936E-05

      iter #   2 total cpu time : 17636.7 secs   av.it.:  11.5
      thresh= 8.328E-04 alpha_mix =  0.700 |ddv_scf|^2 =  3.721E-04

      iter #   3 total cpu time : 17700.9 secs   av.it.:   9.7
      thresh= 1.929E-03 alpha_mix =  0.700 |ddv_scf|^2 =  4.276E-06

      iter #   4 total cpu time : 17769.9 secs   av.it.:  10.5
      thresh= 2.068E-04 alpha_mix =  0.700 |ddv_scf|^2 =  3.125E-08

      iter #   5 total cpu time : 17840.9 secs   av.it.:  11.4
      thresh= 1.768E-05 alpha_mix =  0.700 |ddv_scf|^2 =  4.313E-09

     End of self-consistent calculation

     Convergence has been achieved 


     Representation # 18 mode #  18

     Self-consistent Calculation

      iter #   1 total cpu time : 17879.8 secs   av.it.:   4.3
      thresh= 1.000E-02 alpha_mix =  0.700 |ddv_scf|^2 =  8.423E-07

      iter #   2 total cpu time : 17951.3 secs   av.it.:  11.7
      thresh= 9.178E-05 alpha_mix =  0.700 |ddv_scf|^2 =  4.548E-06

      iter #   3 total cpu time : 18014.5 secs   av.it.:  10.0
      thresh= 2.132E-04 alpha_mix =  0.700 |ddv_scf|^2 =  4.789E-08

      iter #   4 total cpu time : 18084.8 secs   av.it.:  10.8
      thresh= 2.188E-05 alpha_mix =  0.700 |ddv_scf|^2 =  9.962E-10

     End of self-consistent calculation

     Convergence has been achieved 


     Representation # 19 mode #  19

     Self-consistent Calculation

      iter #   1 total cpu time : 18125.3 secs   av.it.:   4.2
      thresh= 1.000E-02 alpha_mix =  0.700 |ddv_scf|^2 =  1.863E-07

      iter #   2 total cpu time : 18196.6 secs   av.it.:  11.9
      thresh= 4.317E-05 alpha_mix =  0.700 |ddv_scf|^2 =  3.740E-07

      iter #   3 total cpu time : 18270.1 secs   av.it.:  10.7
      thresh= 6.115E-05 alpha_mix =  0.700 |ddv_scf|^2 =  3.655E-08

      iter #   4 total cpu time : 18333.6 secs   av.it.:  10.4
      thresh= 1.912E-05 alpha_mix =  0.700 |ddv_scf|^2 =  1.443E-09

     End of self-consistent calculation

     Convergence has been achieved 


     Representation # 20 mode #  20

     Self-consistent Calculation

      iter #   1 total cpu time : 18370.9 secs   av.it.:   4.1
      thresh= 1.000E-02 alpha_mix =  0.700 |ddv_scf|^2 =  1.965E-07

      iter #   2 total cpu time : 18442.7 secs   av.it.:  11.9
      thresh= 4.433E-05 alpha_mix =  0.700 |ddv_scf|^2 =  4.715E-07

      iter #   3 total cpu time : 18510.1 secs   av.it.:  10.6
      thresh= 6.867E-05 alpha_mix =  0.700 |ddv_scf|^2 =  4.909E-08

      iter #   4 total cpu time : 18576.9 secs   av.it.:  10.6
      thresh= 2.216E-05 alpha_mix =  0.700 |ddv_scf|^2 =  1.537E-09

     End of self-consistent calculation

     Convergence has been achieved 


     Representation # 21 mode #  21

     Self-consistent Calculation

      iter #   1 total cpu time : 18623.0 secs   av.it.:   4.1
      thresh= 1.000E-02 alpha_mix =  0.700 |ddv_scf|^2 =  2.212E-07

      iter #   2 total cpu time : 18696.9 secs   av.it.:  11.9
      thresh= 4.703E-05 alpha_mix =  0.700 |ddv_scf|^2 =  5.537E-07

      iter #   3 total cpu time : 18763.4 secs   av.it.:  10.5
      thresh= 7.441E-05 alpha_mix =  0.700 |ddv_scf|^2 =  5.460E-08

      iter #   4 total cpu time : 18830.4 secs   av.it.:  10.5
      thresh= 2.337E-05 alpha_mix =  0.700 |ddv_scf|^2 =  1.073E-09

     End of self-consistent calculation

     Convergence has been achieved 


     Representation # 22 mode #  22

     Self-consistent Calculation

      iter #   1 total cpu time : 18877.7 secs   av.it.:   4.3
      thresh= 1.000E-02 alpha_mix =  0.700 |ddv_scf|^2 =  5.920E-07

      iter #   2 total cpu time : 18949.2 secs   av.it.:  11.8
      thresh= 7.694E-05 alpha_mix =  0.700 |ddv_scf|^2 =  2.919E-06

      iter #   3 total cpu time : 19012.5 secs   av.it.:  10.1
      thresh= 1.708E-04 alpha_mix =  0.700 |ddv_scf|^2 =  5.036E-08

      iter #   4 total cpu time : 19080.5 secs   av.it.:  10.8
      thresh= 2.244E-05 alpha_mix =  0.700 |ddv_scf|^2 =  1.237E-09

     End of self-consistent calculation

     Convergence has been achieved 


     Representation # 23 mode #  23

     Self-consistent Calculation

      iter #   1 total cpu time : 19123.3 secs   av.it.:   4.2
      thresh= 1.000E-02 alpha_mix =  0.700 |ddv_scf|^2 =  1.965E-07

      iter #   2 total cpu time : 19199.8 secs   av.it.:  12.0
      thresh= 4.433E-05 alpha_mix =  0.700 |ddv_scf|^2 =  4.615E-07

      iter #   3 total cpu time : 19264.9 secs   av.it.:  10.6
      thresh= 6.793E-05 alpha_mix =  0.700 |ddv_scf|^2 =  4.865E-08

      iter #   4 total cpu time : 19328.5 secs   av.it.:  10.3
      thresh= 2.206E-05 alpha_mix =  0.700 |ddv_scf|^2 =  1.781E-09

     End of self-consistent calculation

     Convergence has been achieved 


     Representation # 24 mode #  24

     Self-consistent Calculation

      iter #   1 total cpu time : 19368.0 secs   av.it.:   4.2
      thresh= 1.000E-02 alpha_mix =  0.700 |ddv_scf|^2 =  1.670E-07

      iter #   2 total cpu time : 19450.4 secs   av.it.:  12.0
      thresh= 4.087E-05 alpha_mix =  0.700 |ddv_scf|^2 =  4.034E-07

      iter #   3 total cpu time : 19514.9 secs   av.it.:  10.6
      thresh= 6.351E-05 alpha_mix =  0.700 |ddv_scf|^2 =  4.484E-08

      iter #   4 total cpu time : 19578.8 secs   av.it.:  10.4
      thresh= 2.117E-05 alpha_mix =  0.700 |ddv_scf|^2 =  1.111E-09

     End of self-consistent calculation

     Convergence has been achieved 


     Representation # 25 mode #  25

     Self-consistent Calculation

      iter #   1 total cpu time : 19616.9 secs   av.it.:   4.2
      thresh= 1.000E-02 alpha_mix =  0.700 |ddv_scf|^2 =  4.322E-07

      iter #   2 total cpu time : 19688.3 secs   av.it.:  11.8
      thresh= 6.574E-05 alpha_mix =  0.700 |ddv_scf|^2 =  2.040E-06

      iter #   3 total cpu time : 19752.7 secs   av.it.:  10.0
      thresh= 1.428E-04 alpha_mix =  0.700 |ddv_scf|^2 =  4.125E-08

      iter #   4 total cpu time : 19825.5 secs   av.it.:  10.8
      thresh= 2.031E-05 alpha_mix =  0.700 |ddv_scf|^2 =  6.427E-10

     End of self-consistent calculation

     Convergence has been achieved 


     Representation # 26 mode #  26

     Self-consistent Calculation

      iter #   1 total cpu time : 19865.6 secs   av.it.:   4.2
      thresh= 1.000E-02 alpha_mix =  0.700 |ddv_scf|^2 =  4.231E-07

      iter #   2 total cpu time : 19943.8 secs   av.it.:  11.9
      thresh= 6.504E-05 alpha_mix =  0.700 |ddv_scf|^2 =  1.859E-06

      iter #   3 total cpu time : 20007.8 secs   av.it.:  10.2
      thresh= 1.363E-04 alpha_mix =  0.700 |ddv_scf|^2 =  4.551E-08

      iter #   4 total cpu time : 20079.8 secs   av.it.:  10.9
      thresh= 2.133E-05 alpha_mix =  0.700 |ddv_scf|^2 =  1.773E-09

     End of self-consistent calculation

     Convergence has been achieved 


     Representation # 27 mode #  27

     Self-consistent Calculation

      iter #   1 total cpu time : 20119.4 secs   av.it.:   4.2
      thresh= 1.000E-02 alpha_mix =  0.700 |ddv_scf|^2 =  2.438E-07

      iter #   2 total cpu time : 20190.4 secs   av.it.:  12.0
      thresh= 4.938E-05 alpha_mix =  0.700 |ddv_scf|^2 =  7.282E-07

      iter #   3 total cpu time : 20255.4 secs   av.it.:  10.5
      thresh= 8.533E-05 alpha_mix =  0.700 |ddv_scf|^2 =  4.957E-08

      iter #   4 total cpu time : 20331.4 secs   av.it.:  10.6
      thresh= 2.226E-05 alpha_mix =  0.700 |ddv_scf|^2 =  1.690E-09

     End of self-consistent calculation

     Convergence has been achieved 


     Representation # 28 mode #  28

     Self-consistent Calculation

      iter #   1 total cpu time : 20383.2 secs   av.it.:   4.3
      thresh= 1.000E-02 alpha_mix =  0.700 |ddv_scf|^2 =  8.369E-07

      iter #   2 total cpu time : 20461.8 secs   av.it.:  11.6
      thresh= 9.148E-05 alpha_mix =  0.700 |ddv_scf|^2 =  4.727E-06

      iter #   3 total cpu time : 20528.1 secs   av.it.:   9.8
      thresh= 2.174E-04 alpha_mix =  0.700 |ddv_scf|^2 =  3.403E-08

      iter #   4 total cpu time : 20597.2 secs   av.it.:  10.8
      thresh= 1.845E-05 alpha_mix =  0.700 |ddv_scf|^2 =  9.020E-10

     End of self-consistent calculation

     Convergence has been achieved 


     Representation # 29 mode #  29

     Self-consistent Calculation

      iter #   1 total cpu time : 20635.1 secs   av.it.:   4.3
      thresh= 1.000E-02 alpha_mix =  0.700 |ddv_scf|^2 =  1.067E-06

      iter #   2 total cpu time : 20705.5 secs   av.it.:  11.7
      thresh= 1.033E-04 alpha_mix =  0.700 |ddv_scf|^2 =  5.964E-06

      iter #   3 total cpu time : 20768.0 secs   av.it.:   9.9
      thresh= 2.442E-04 alpha_mix =  0.700 |ddv_scf|^2 =  4.769E-08

      iter #   4 total cpu time : 20834.8 secs   av.it.:  10.9
      thresh= 2.184E-05 alpha_mix =  0.700 |ddv_scf|^2 =  8.293E-10

     End of self-consistent calculation

     Convergence has been achieved 


     Representation # 30 mode #  30

     Self-consistent Calculation

      iter #   1 total cpu time : 20874.0 secs   av.it.:   4.1
      thresh= 1.000E-02 alpha_mix =  0.700 |ddv_scf|^2 =  2.254E-07

      iter #   2 total cpu time : 20945.7 secs   av.it.:  11.9
      thresh= 4.748E-05 alpha_mix =  0.700 |ddv_scf|^2 =  7.133E-07

      iter #   3 total cpu time : 21009.4 secs   av.it.:  10.3
      thresh= 8.446E-05 alpha_mix =  0.700 |ddv_scf|^2 =  4.834E-08

      iter #   4 total cpu time : 21076.2 secs   av.it.:  10.7
      thresh= 2.199E-05 alpha_mix =  0.700 |ddv_scf|^2 =  4.571E-10

     End of self-consistent calculation

     Convergence has been achieved 


     Representation # 31 mode #  31

     Self-consistent Calculation

      iter #   1 total cpu time : 21115.0 secs   av.it.:   4.1
      thresh= 1.000E-02 alpha_mix =  0.700 |ddv_scf|^2 =  2.306E-07

      iter #   2 total cpu time : 21187.0 secs   av.it.:  11.9
      thresh= 4.802E-05 alpha_mix =  0.700 |ddv_scf|^2 =  7.481E-07

      iter #   3 total cpu time : 21251.4 secs   av.it.:  10.4
      thresh= 8.650E-05 alpha_mix =  0.700 |ddv_scf|^2 =  4.685E-08

      iter #   4 total cpu time : 21316.4 secs   av.it.:  10.6
      thresh= 2.164E-05 alpha_mix =  0.700 |ddv_scf|^2 =  9.449E-10

     End of self-consistent calculation

     Convergence has been achieved 


     Representation # 32 mode #  32

     Self-consistent Calculation

      iter #   1 total cpu time : 21368.2 secs   av.it.:   6.5
      thresh= 1.000E-02 alpha_mix =  0.700 |ddv_scf|^2 =  7.313E-06

      iter #   2 total cpu time : 21440.7 secs   av.it.:  11.7
      thresh= 2.704E-04 alpha_mix =  0.700 |ddv_scf|^2 =  6.076E-06

      iter #   3 total cpu time : 21517.6 secs   av.it.:  10.9
      thresh= 2.465E-04 alpha_mix =  0.700 |ddv_scf|^2 =  8.036E-07

      iter #   4 total cpu time : 21588.1 secs   av.it.:  10.0
      thresh= 8.964E-05 alpha_mix =  0.700 |ddv_scf|^2 =  7.454E-09

     End of self-consistent calculation

     Convergence has been achieved 


     Representation # 33 mode #  33

     Self-consistent Calculation

      iter #   1 total cpu time : 21637.9 secs   av.it.:   4.2
      thresh= 1.000E-02 alpha_mix =  0.700 |ddv_scf|^2 =  7.911E-07

      iter #   2 total cpu time : 21714.1 secs   av.it.:  11.7
      thresh= 8.894E-05 alpha_mix =  0.700 |ddv_scf|^2 =  4.369E-06

      iter #   3 total cpu time : 21775.3 secs   av.it.:   9.9
      thresh= 2.090E-04 alpha_mix =  0.700 |ddv_scf|^2 =  3.815E-08

      iter #   4 total cpu time : 21842.0 secs   av.it.:  10.9
      thresh= 1.953E-05 alpha_mix =  0.700 |ddv_scf|^2 =  9.811E-10

     End of self-consistent calculation

     Convergence has been achieved 

     Number of q in the star =    2
     List of q in the star:
          1   0.372804008   0.213310863  -0.457166411
          2  -0.372804008  -0.213310863   0.457166411

     Diagonalizing the dynamical matrix

     q = (    0.372804008   0.213310863  -0.457166411 ) 

 **************************************************************************
     freq (    1) =     -19.362968 [THz] =    -645.879075 [cm-1]
     freq (    2) =       4.120303 [THz] =     137.438525 [cm-1]
     freq (    3) =       5.015243 [THz] =     167.290489 [cm-1]
     freq (    4) =       9.600866 [THz] =     320.250410 [cm-1]
     freq (    5) =      17.167699 [THz] =     572.652814 [cm-1]
     freq (    6) =      19.067888 [THz] =     636.036288 [cm-1]
     freq (    7) =      21.444579 [THz] =     715.314165 [cm-1]
     freq (    8) =      25.253720 [THz] =     842.373425 [cm-1]
     freq (    9) =      25.658731 [THz] =     855.883137 [cm-1]
     freq (   10) =      27.452832 [THz] =     915.727916 [cm-1]
     freq (   11) =      27.998868 [THz] =     933.941718 [cm-1]
     freq (   12) =      31.884821 [THz] =    1063.563155 [cm-1]
     freq (   13) =      36.024122 [THz] =    1201.635368 [cm-1]
     freq (   14) =      36.190579 [THz] =    1207.187764 [cm-1]
     freq (   15) =      37.564828 [THz] =    1253.027794 [cm-1]
     freq (   16) =      37.818574 [THz] =    1261.491845 [cm-1]
     freq (   17) =      39.219882 [THz] =    1308.234449 [cm-1]
     freq (   18) =      40.316331 [THz] =    1344.808048 [cm-1]
     freq (   19) =      40.699940 [THz] =    1357.603862 [cm-1]
     freq (   20) =      41.325052 [THz] =    1378.455371 [cm-1]
     freq (   21) =      42.079353 [THz] =    1403.616145 [cm-1]
     freq (   22) =      42.846588 [THz] =    1429.208338 [cm-1]
     freq (   23) =      43.224793 [THz] =    1441.823910 [cm-1]
     freq (   24) =      43.501250 [THz] =    1451.045496 [cm-1]
     freq (   25) =      43.975946 [THz] =    1466.879661 [cm-1]
     freq (   26) =      45.115211 [THz] =    1504.881437 [cm-1]
     freq (   27) =      46.765425 [THz] =    1559.926670 [cm-1]
     freq (   28) =      47.605382 [THz] =    1587.944625 [cm-1]
[...]

     End of self-consistent calculation

     Convergence has been achieved 


     Representation # 20 mode #  20

     Self-consistent Calculation

      iter #   1 total cpu time :114546.8 secs   av.it.:   4.2
      thresh= 1.000E-02 alpha_mix =  0.700 |ddv_scf|^2 =  9.616E-07

      iter #   2 total cpu time :114617.7 secs   av.it.:  11.7
      thresh= 9.806E-05 alpha_mix =  0.700 |ddv_scf|^2 =  8.629E-06

      iter #   3 total cpu time :114680.1 secs   av.it.:   9.6
      thresh= 2.937E-04 alpha_mix =  0.700 |ddv_scf|^2 =  3.880E-08

      iter #   4 total cpu time :114748.7 secs   av.it.:  10.9
      thresh= 1.970E-05 alpha_mix =  0.700 |ddv_scf|^2 =  9.716E-09

     End of self-consistent calculation

     Convergence has been achieved 


     Representation # 21 mode #  21

     Self-consistent Calculation

      iter #   1 total cpu time :114793.4 secs   av.it.:   4.1
      thresh= 1.000E-02 alpha_mix =  0.700 |ddv_scf|^2 =  2.533E-07

      iter #   2 total cpu time :114865.2 secs   av.it.:  11.9
      thresh= 5.033E-05 alpha_mix =  0.700 |ddv_scf|^2 =  1.141E-06

      iter #   3 total cpu time :114929.9 secs   av.it.:  10.2
      thresh= 1.068E-04 alpha_mix =  0.700 |ddv_scf|^2 =  3.831E-08

      iter #   4 total cpu time :114996.4 secs   av.it.:  10.7
      thresh= 1.957E-05 alpha_mix =  0.700 |ddv_scf|^2 =  1.571E-08

      iter #   5 total cpu time :115060.8 secs   av.it.:  10.3
      thresh= 1.253E-05 alpha_mix =  0.700 |ddv_scf|^2 =  9.449E-11

     End of self-consistent calculation

     Convergence has been achieved 


     Representation # 22 mode #  22

     Self-consistent Calculation

      iter #   1 total cpu time :115099.8 secs   av.it.:   4.2
      thresh= 1.000E-02 alpha_mix =  0.700 |ddv_scf|^2 =  4.659E-07

      iter #   2 total cpu time :115170.8 secs   av.it.:  11.8
      thresh= 6.826E-05 alpha_mix =  0.700 |ddv_scf|^2 =  2.895E-06

      iter #   3 total cpu time :115233.0 secs   av.it.:  10.0
      thresh= 1.702E-04 alpha_mix =  0.700 |ddv_scf|^2 =  6.930E-08

      iter #   4 total cpu time :115300.0 secs   av.it.:  10.6
      thresh= 2.633E-05 alpha_mix =  0.700 |ddv_scf|^2 =  1.176E-08

      iter #   5 total cpu time :115367.4 secs   av.it.:  10.5
      thresh= 1.084E-05 alpha_mix =  0.700 |ddv_scf|^2 =  1.149E-10

     End of self-consistent calculation

     Convergence has been achieved 


     Representation # 23 mode #  23

     Self-consistent Calculation

      iter #   1 total cpu time :115410.6 secs   av.it.:   4.2
      thresh= 1.000E-02 alpha_mix =  0.700 |ddv_scf|^2 =  1.136E-06

      iter #   2 total cpu time :115481.0 secs   av.it.:  11.7
      thresh= 1.066E-04 alpha_mix =  0.700 |ddv_scf|^2 =  9.821E-06

      iter #   3 total cpu time :115543.8 secs   av.it.:   9.6
      thresh= 3.134E-04 alpha_mix =  0.700 |ddv_scf|^2 =  7.436E-08

      iter #   4 total cpu time :115610.5 secs   av.it.:  10.5
      thresh= 2.727E-05 alpha_mix =  0.700 |ddv_scf|^2 =  7.654E-09

     End of self-consistent calculation

     Convergence has been achieved 


     Representation # 24 mode #  24

     Self-consistent Calculation

      iter #   1 total cpu time :115652.3 secs   av.it.:   4.4
      thresh= 1.000E-02 alpha_mix =  0.700 |ddv_scf|^2 =  1.273E-06

      iter #   2 total cpu time :115723.4 secs   av.it.:  11.7
      thresh= 1.128E-04 alpha_mix =  0.700 |ddv_scf|^2 =  1.121E-05

      iter #   3 total cpu time :115785.0 secs   av.it.:   9.6
      thresh= 3.347E-04 alpha_mix =  0.700 |ddv_scf|^2 =  7.504E-08

      iter #   4 total cpu time :115850.9 secs   av.it.:  10.5
      thresh= 2.739E-05 alpha_mix =  0.700 |ddv_scf|^2 =  5.203E-09

     End of self-consistent calculation

     Convergence has been achieved 


     Representation # 25 mode #  25

     Self-consistent Calculation

      iter #   1 total cpu time :115892.4 secs   av.it.:   4.1
      thresh= 1.000E-02 alpha_mix =  0.700 |ddv_scf|^2 =  2.476E-07

      iter #   2 total cpu time :115964.5 secs   av.it.:  11.9
      thresh= 4.976E-05 alpha_mix =  0.700 |ddv_scf|^2 =  1.784E-06

      iter #   3 total cpu time :116025.8 secs   av.it.:   9.7
      thresh= 1.336E-04 alpha_mix =  0.700 |ddv_scf|^2 =  2.491E-08

      iter #   4 total cpu time :116093.6 secs   av.it.:  11.0
      thresh= 1.578E-05 alpha_mix =  0.700 |ddv_scf|^2 =  2.884E-09

     End of self-consistent calculation

     Convergence has been achieved 


     Representation # 26 mode #  26

     Self-consistent Calculation

      iter #   1 total cpu time :116134.3 secs   av.it.:   4.2
      thresh= 1.000E-02 alpha_mix =  0.700 |ddv_scf|^2 =  7.588E-07

      iter #   2 total cpu time :116205.7 secs   av.it.:  11.7
      thresh= 8.711E-05 alpha_mix =  0.700 |ddv_scf|^2 =  6.262E-06

      iter #   3 total cpu time :116267.9 secs   av.it.:   9.6
      thresh= 2.502E-04 alpha_mix =  0.700 |ddv_scf|^2 =  5.038E-08

      iter #   4 total cpu time :116335.4 secs   av.it.:  10.8
      thresh= 2.245E-05 alpha_mix =  0.700 |ddv_scf|^2 =  1.075E-08

      iter #   5 total cpu time :116401.8 secs   av.it.:  10.6
      thresh= 1.037E-05 alpha_mix =  0.700 |ddv_scf|^2 =  1.157E-10

     End of self-consistent calculation

     Convergence has been achieved 


     Representation # 27 mode #  27

     Self-consistent Calculation

      iter #   1 total cpu time :116443.6 secs   av.it.:   4.2
      thresh= 1.000E-02 alpha_mix =  0.700 |ddv_scf|^2 =  6.245E-07

      iter #   2 total cpu time :116514.5 secs   av.it.:  11.7
      thresh= 7.903E-05 alpha_mix =  0.700 |ddv_scf|^2 =  5.301E-06

      iter #   3 total cpu time :116575.2 secs   av.it.:   9.6
      thresh= 2.302E-04 alpha_mix =  0.700 |ddv_scf|^2 =  3.000E-08

      iter #   4 total cpu time :116643.5 secs   av.it.:  11.1
      thresh= 1.732E-05 alpha_mix =  0.700 |ddv_scf|^2 =  9.240E-09

     End of self-consistent calculation

     Convergence has been achieved 


     Representation # 28 mode #  28

     Self-consistent Calculation

      iter #   1 total cpu time :116685.8 secs   av.it.:   4.2
      thresh= 1.000E-02 alpha_mix =  0.700 |ddv_scf|^2 =  4.522E-07

      iter #   2 total cpu time :116756.8 secs   av.it.:  11.8
      thresh= 6.724E-05 alpha_mix =  0.700 |ddv_scf|^2 =  3.491E-06

      iter #   3 total cpu time :116820.2 secs   av.it.:   9.7
      thresh= 1.868E-04 alpha_mix =  0.700 |ddv_scf|^2 =  4.177E-08

      iter #   4 total cpu time :116887.7 secs   av.it.:  10.8
      thresh= 2.044E-05 alpha_mix =  0.700 |ddv_scf|^2 =  9.802E-09

     End of self-consistent calculation

     Convergence has been achieved 


     Representation # 29 mode #  29

     Self-consistent Calculation

      iter #   1 total cpu time :116933.5 secs   av.it.:   4.3
      thresh= 1.000E-02 alpha_mix =  0.700 |ddv_scf|^2 =  1.412E-06

      iter #   2 total cpu time :117004.0 secs   av.it.:  11.7
      thresh= 1.188E-04 alpha_mix =  0.700 |ddv_scf|^2 =  1.232E-05

      iter #   3 total cpu time :117065.8 secs   av.it.:   9.6
      thresh= 3.511E-04 alpha_mix =  0.700 |ddv_scf|^2 =  8.553E-08

      iter #   4 total cpu time :117131.5 secs   av.it.:  10.5
      thresh= 2.924E-05 alpha_mix =  0.700 |ddv_scf|^2 =  6.520E-09

     End of self-consistent calculation

     Convergence has been achieved 


     Representation # 30 mode #  30

     Self-consistent Calculation

      iter #   1 total cpu time :117172.1 secs   av.it.:   4.2
      thresh= 1.000E-02 alpha_mix =  0.700 |ddv_scf|^2 =  9.006E-07

      iter #   2 total cpu time :117244.2 secs   av.it.:  11.7
      thresh= 9.490E-05 alpha_mix =  0.700 |ddv_scf|^2 =  7.965E-06

      iter #   3 total cpu time :117306.2 secs   av.it.:   9.6
      thresh= 2.822E-04 alpha_mix =  0.700 |ddv_scf|^2 =  4.693E-08

      iter #   4 total cpu time :117372.3 secs   av.it.:  10.8
      thresh= 2.166E-05 alpha_mix =  0.700 |ddv_scf|^2 =  9.469E-09

     End of self-consistent calculation

     Convergence has been achieved 


     Representation # 31 mode #  31

     Self-consistent Calculation

      iter #   1 total cpu time :117416.1 secs   av.it.:   4.4
      thresh= 1.000E-02 alpha_mix =  0.700 |ddv_scf|^2 =  2.067E-06

      iter #   2 total cpu time :117485.9 secs   av.it.:  11.6
      thresh= 1.438E-04 alpha_mix =  0.700 |ddv_scf|^2 =  1.904E-05

      iter #   3 total cpu time :117546.7 secs   av.it.:   9.6
      thresh= 4.363E-04 alpha_mix =  0.700 |ddv_scf|^2 =  8.695E-08

      iter #   4 total cpu time :117611.6 secs   av.it.:  10.5
      thresh= 2.949E-05 alpha_mix =  0.700 |ddv_scf|^2 =  4.512E-09

     End of self-consistent calculation

     Convergence has been achieved 


     Representation # 32 mode #  32

     Self-consistent Calculation

      iter #   1 total cpu time :117667.2 secs   av.it.:   7.2
      thresh= 1.000E-02 alpha_mix =  0.700 |ddv_scf|^2 =  1.469E-04

      iter #   2 total cpu time :117741.8 secs   av.it.:  11.4
      thresh= 1.212E-03 alpha_mix =  0.700 |ddv_scf|^2 =  1.164E-03

      iter #   3 total cpu time :117803.0 secs   av.it.:   9.5
      thresh= 3.412E-03 alpha_mix =  0.700 |ddv_scf|^2 =  1.270E-05

      iter #   4 total cpu time :117866.7 secs   av.it.:  10.0
      thresh= 3.564E-04 alpha_mix =  0.700 |ddv_scf|^2 =  1.293E-07

      iter #   5 total cpu time :117935.6 secs   av.it.:  11.2
      thresh= 3.595E-05 alpha_mix =  0.700 |ddv_scf|^2 =  2.468E-09

     End of self-consistent calculation

     Convergence has been achieved 


     Representation # 33 mode #  33

     Self-consistent Calculation

      iter #   1 total cpu time :117979.9 secs   av.it.:   4.2
      thresh= 1.000E-02 alpha_mix =  0.700 |ddv_scf|^2 =  1.268E-06

      iter #   2 total cpu time :118051.9 secs   av.it.:  11.7
      thresh= 1.126E-04 alpha_mix =  0.700 |ddv_scf|^2 =  1.140E-05

      iter #   3 total cpu time :118114.4 secs   av.it.:   9.6
      thresh= 3.376E-04 alpha_mix =  0.700 |ddv_scf|^2 =  5.928E-08

      iter #   4 total cpu time :118181.6 secs   av.it.:  10.6
      thresh= 2.435E-05 alpha_mix =  0.700 |ddv_scf|^2 =  8.335E-09

     End of self-consistent calculation

     Convergence has been achieved 

     Number of q in the star =    2
     List of q in the star:
          1   0.369365959  -0.360884493  -0.253981340
          2  -0.369365959   0.360884493   0.253981340

     Diagonalizing the dynamical matrix

     q = (    0.369365959  -0.360884493  -0.253981340 ) 

 **************************************************************************
     freq (    1) =     -56.449636 [THz] =   -1882.957172 [cm-1]
     freq (    2) =       2.149908 [THz] =      71.713228 [cm-1]
     freq (    3) =       3.461203 [THz] =     115.453297 [cm-1]
     freq (    4) =       9.902790 [THz] =     330.321502 [cm-1]
     freq (    5) =      19.549104 [THz] =     652.087919 [cm-1]
     freq (    6) =      23.183905 [THz] =     773.331820 [cm-1]
     freq (    7) =      25.073666 [THz] =     836.367472 [cm-1]
     freq (    8) =      26.857081 [THz] =     895.855789 [cm-1]
     freq (    9) =      27.221066 [THz] =     907.997022 [cm-1]
     freq (   10) =      32.823258 [THz] =    1094.866039 [cm-1]
     freq (   11) =      33.295289 [THz] =    1110.611295 [cm-1]
     freq (   12) =      34.410242 [THz] =    1147.802122 [cm-1]
     freq (   13) =      36.288950 [THz] =    1210.469085 [cm-1]
     freq (   14) =      36.410514 [THz] =    1214.524009 [cm-1]
     freq (   15) =      38.811930 [THz] =    1294.626644 [cm-1]
     freq (   16) =      39.258164 [THz] =    1309.511411 [cm-1]
     freq (   17) =      40.897886 [THz] =    1364.206645 [cm-1]
     freq (   18) =      41.200871 [THz] =    1374.313116 [cm-1]
     freq (   19) =      41.694224 [THz] =    1390.769602 [cm-1]
     freq (   20) =      42.093834 [THz] =    1404.099153 [cm-1]
     freq (   21) =      42.754768 [THz] =    1426.145556 [cm-1]
     freq (   22) =      43.249388 [THz] =    1442.644307 [cm-1]
     freq (   23) =      45.134092 [THz] =    1505.511258 [cm-1]
     freq (   24) =      45.621283 [THz] =    1521.762198 [cm-1]
     freq (   25) =      47.566138 [THz] =    1586.635593 [cm-1]
     freq (   26) =      49.618146 [THz] =    1655.083201 [cm-1]
     freq (   27) =      51.144400 [THz] =    1705.993544 [cm-1]
     freq (   28) =      51.653327 [THz] =    1722.969535 [cm-1]
     freq (   29) =      53.756927 [THz] =    1793.138077 [cm-1]
     freq (   30) =      54.168060 [THz] =    1806.851981 [cm-1]
     freq (   31) =      56.319887 [THz] =    1878.629204 [cm-1]
     freq (   32) =      58.372430 [THz] =    1947.094693 [cm-1]
     freq (   33) =      61.426400 [THz] =    2048.964169 [cm-1]
 **************************************************************************

     Mode symmetry, C_1 (1)     point group:

     freq (  1 -  1) =      -1883.0  [cm-1]   --> A                  
     freq (  2 -  2) =         71.7  [cm-1]   --> A                  
     freq (  3 -  3) =        115.5  [cm-1]   --> A                  
     freq (  4 -  4) =        330.3  [cm-1]   --> A                  
     freq (  5 -  5) =        652.1  [cm-1]   --> A                  
     freq (  6 -  6) =        773.3  [cm-1]   --> A                  
     freq (  7 -  7) =        836.4  [cm-1]   --> A                  
     freq (  8 -  8) =        895.9  [cm-1]   --> A                  
     freq (  9 -  9) =        908.0  [cm-1]   --> A                  
     freq ( 10 - 10) =       1094.9  [cm-1]   --> A                  
     freq ( 11 - 11) =       1110.6  [cm-1]   --> A                  
     freq ( 12 - 12) =       1147.8  [cm-1]   --> A                  
     freq ( 13 - 13) =       1210.5  [cm-1]   --> A                  
     freq ( 14 - 14) =       1214.5  [cm-1]   --> A                  
     freq ( 15 - 15) =       1294.6  [cm-1]   --> A                  
     freq ( 16 - 16) =       1309.5  [cm-1]   --> A                  
     freq ( 17 - 17) =       1364.2  [cm-1]   --> A                  
     freq ( 18 - 18) =       1374.3  [cm-1]   --> A                  
     freq ( 19 - 19) =       1390.8  [cm-1]   --> A                  
     freq ( 20 - 20) =       1404.1  [cm-1]   --> A                  
     freq ( 21 - 21) =       1426.1  [cm-1]   --> A                  
     freq ( 22 - 22) =       1442.6  [cm-1]   --> A                  
     freq ( 23 - 23) =       1505.5  [cm-1]   --> A                  
     freq ( 24 - 24) =       1521.8  [cm-1]   --> A                  
     freq ( 25 - 25) =       1586.6  [cm-1]   --> A                  
     freq ( 26 - 26) =       1655.1  [cm-1]   --> A                  
     freq ( 27 - 27) =       1706.0  [cm-1]   --> A                  
     freq ( 28 - 28) =       1723.0  [cm-1]   --> A                  
     freq ( 29 - 29) =       1793.1  [cm-1]   --> A                  
     freq ( 30 - 30) =       1806.9  [cm-1]   --> A                  
     freq ( 31 - 31) =       1878.6  [cm-1]   --> A                  
     freq ( 32 - 32) =       1947.1  [cm-1]   --> A                  
     freq ( 33 - 33) =       2049.0  [cm-1]   --> A                  

     init_run     :      6.82s CPU      7.61s WALL (      10 calls)
     electrons    :   5538.46s CPU   5683.54s WALL (      10 calls)

     Called by init_run:
     wfcinit      :      0.00s CPU      0.08s WALL (      10 calls)
     potinit      :      0.08s CPU      0.62s WALL (      10 calls)

     Called by electrons:
     c_bands      :   5527.00s CPU   5672.09s WALL (      10 calls)
     v_of_rho     :      0.09s CPU      0.09s WALL (      11 calls)

     Called by c_bands:
     init_us_2    :    327.06s CPU    313.18s WALL ( 2985984 calls)
     cegterg      :   3875.47s CPU   3960.26s WALL (  105392 calls)

     Called by sum_band:

     Called by *egterg:
     h_psi        :  74001.83s CPU  76169.02s WALL (42985169 calls)
     g_psi        :      4.19s CPU      7.18s WALL ( 1788523 calls)
     cdiaghg      :   1121.80s CPU   1062.55s WALL ( 1823083 calls)

     Called by h_psi:
     h_psi:pot    :  73915.26s CPU  76043.54s WALL (42985169 calls)
     h_psi:calbec :  10453.29s CPU  10320.35s WALL (42985169 calls)
     vloc_psi     :  61930.03s CPU  63895.66s WALL (42985169 calls)
     add_vuspsi   :   1466.72s CPU   1739.52s WALL (42985169 calls)

     General routines
     calbec       :  16785.75s CPU  16761.05s WALL (86495623 calls)
     fft          :      1.65s CPU      1.95s WALL (   15099 calls)
     ffts         :     90.24s CPU     94.91s WALL (  581130 calls)
     fftw         :  74382.37s CPU  76168.98s WALL (******** calls)
     davcio       :    173.72s CPU    442.98s WALL (11827746 calls)

     Parallel routines
     fft_scatt_xy :   3455.66s CPU   4286.32s WALL (******** calls)
     fft_scatt_yz :  51956.51s CPU  49955.17s WALL (******** calls)

     PHONON       :     1d    7h51m CPU        1d    8h49m WALL

     INITIALIZATION: 
     phq_setup    :      1.12s CPU      1.62s WALL (      10 calls)
     phq_init     :     86.25s CPU     88.03s WALL (      10 calls)

     phq_init     :     86.25s CPU     88.03s WALL (      10 calls)
     init_vloc    :      0.22s CPU      0.22s WALL (      11 calls)
     init_us_1    :      0.27s CPU      0.28s WALL (      11 calls)

     DYNAMICAL MATRIX:
     dynmat0      :     69.08s CPU     69.67s WALL (      10 calls)
     phqscf       : 109011.99s CPU 112323.45s WALL (      10 calls)
     dynmatrix    :      0.07s CPU      0.24s WALL (      10 calls)

     phqscf       : 109011.99s CPU 112323.45s WALL (      10 calls)
     solve_linter : 108412.84s CPU 111708.58s WALL (     330 calls)
     drhodv       :    598.08s CPU    612.95s WALL (     330 calls)

     dynmat0      :     69.08s CPU     69.67s WALL (      10 calls)
     dynmat_us    :     68.74s CPU     69.30s WALL (      10 calls)
     d2ionq       :      0.31s CPU      0.31s WALL (      10 calls)

     dynmat_us    :     68.74s CPU     69.30s WALL (      10 calls)

     phqscf       : 109011.99s CPU 112323.45s WALL (      10 calls)
     solve_linter : 108412.84s CPU 111708.58s WALL (     330 calls)

     solve_linter : 108412.84s CPU 111708.58s WALL (     330 calls)
     dvqpsi_us    :   1924.99s CPU   1955.93s WALL (  570240 calls)
     ortho        :   1596.61s CPU   1632.17s WALL ( 2346624 calls)
     cgsolve      :  89475.22s CPU  91946.34s WALL ( 2346624 calls)
     incdrhoscf   :   9778.46s CPU  10056.11s WALL ( 2346624 calls)
     vpsifft      :   4670.21s CPU   4867.67s WALL ( 1776384 calls)
     dv_of_drho   :      1.77s CPU      2.16s WALL (    1358 calls)
     mix_pot      :      1.55s CPU      6.89s WALL (    1358 calls)

     dvqpsi_us    :   1924.99s CPU   1955.93s WALL (  570240 calls)
     dvqpsi_us_on :    351.97s CPU    326.02s WALL (  570240 calls)

     cgsolve      :  89475.22s CPU  91946.34s WALL ( 2346624 calls)
     ch_psi       :  82103.53s CPU  84390.86s WALL (41056694 calls)

     ch_psi       :  82103.53s CPU  84390.86s WALL (41056694 calls)
     h_psi        :  74001.83s CPU  76169.02s WALL (42985169 calls)
     last         :  11510.57s CPU  11694.67s WALL (41056694 calls)

     h_psi        :  74001.83s CPU  76169.02s WALL (42985169 calls)
     add_vuspsi   :   1466.72s CPU   1739.52s WALL (42985169 calls)

     incdrhoscf   :   9778.46s CPU  10056.11s WALL ( 2346624 calls)


      General routines
     calbec       :  16785.75s CPU  16761.05s WALL (86495623 calls)
     fft          :      1.65s CPU      1.95s WALL (   15099 calls)
     ffts         :     90.24s CPU     94.91s WALL (  581130 calls)
     fftw         :  74382.37s CPU  76168.98s WALL (******** calls)
     davcio       :    173.72s CPU    442.98s WALL (11827746 calls)
     write_rec    :      2.38s CPU      6.89s WALL (    1688 calls)


     PHONON       :     1d    7h51m CPU        1d    8h49m WALL


   This run was terminated on:  21:42:34  25Jul2020            

=------------------------------------------------------------------------------=
   JOB DONE.
=------------------------------------------------------------------------------=
