
     Program PHONON v.7.0 starts on 27May2022 at 23:31:11 

     This program is part of the open-source Quantum ESPRESSO suite
     for quantum simulation of materials; please cite
         "P. Giannozzi et al., J. Phys.:Condens. Matter 21 395502 (2009);
         "P. Giannozzi et al., J. Phys.:Condens. Matter 29 465901 (2017);
         "P. Giannozzi et al., J. Chem. Phys. 152 154105 (2020);
          URL http://www.quantum-espresso.org", 
     in publications or presentations arising from this work. More details at
     http://www.quantum-espresso.org/quote

     Parallel version (MPI), running on    20 processors

     MPI processes distributed on     1 nodes
     R & G space division:  proc/nbgrp/npool/nimage =      20
     41386 MiB available memory on the printing compute node when the environment starts
 
     Reading input from /home/mgrebenyuk/QE/Examples/ThH9/200GPa/4x4x4/elph.in

     Reading xml data from directory:

     ./Th2H18.save/

     IMPORTANT: XC functional enforced from input :
     Exchange-correlation= PZ
                           (   1   1   0   0   0   0   0)
     Any further DFT definition will be discarded
     Please, verify this is what you really want

 
     Parallelization info
     --------------------
     sticks:   dense  smooth     PW     G-vecs:    dense   smooth      PW
     Min          52      52     15                 2048     2048     317
     Max          54      54     16                 2051     2051     320
     Sum        1045    1045    313                40967    40967    6355
 
     Using Slab Decomposition
 
     Reading collected, re-writing distributed wavefunctions


     Dynamical matrices for ( 4, 4, 4)  uniform grid of q-points
     With a half shift
     (  12 q-points):
       N         xq(1)         xq(2)         xq(3) 
       1   0.125000000   0.216506351   0.084359808
       2   0.125000000   0.216506351   0.253079423
       3   0.125000000   0.505181486   0.084359808
       4   0.125000000   0.505181486   0.253079423
       5   0.125000000  -0.360843918   0.084359808
       6   0.125000000  -0.360843918   0.253079423
       7   0.125000000  -0.072168784   0.084359808
       8   0.125000000  -0.072168784   0.253079423
       9   0.375000000   0.649519053   0.084359808
      10   0.375000000   0.649519053   0.253079423
      11   0.375000000  -0.216506351   0.084359808
      12   0.375000000  -0.216506351   0.253079423
     Because shifted q grid is used, q2r will not work !

     Saving dvscf to file. Distribute only q points, not irreducible represetations.

     Calculation of q =    0.1250000   0.2165064   0.0843598

     Subspace diagonalization in iterative solution of the eigenvalue problem:
     a serial algorithm will be used

     [opt_tetra]  Optimized tetrahedron method is used.
 
     Parallelization info
     --------------------
     sticks:   dense  smooth     PW     G-vecs:    dense   smooth      PW
     Min          52      52     15                 2048     2048     335
     Max          54      54     16                 2051     2051     342
     Sum        1045    1045    313                40967    40967    6777
 
     Using Slab Decomposition
 

     Title: 
      Electron-phonon for Th2H18                                                


     bravais-lattice index     =            4
     lattice parameter (alat)  =       6.9107  a.u.
     unit-cell volume          =     423.5189 (a.u.)^3
     number of atoms/cell      =           20
     number of atomic types    =            2
     number of electrons       =        26.00
     number of Kohn-Sham states=           17
     kinetic-energy cutoff     =      80.0000  Ry
     charge density cutoff     =     320.0000  Ry
     Exchange-correlation= PZ
                           (   1   1   0   0   0   0   0)

     celldm(1)=   6.910708  celldm(2)=   0.000000  celldm(3)=   1.481748
     celldm(4)=   0.000000  celldm(5)=   0.000000  celldm(6)=   0.000000

     crystal axes: (cart. coord. in units of alat)
               a(1) = (   1.000000   0.000000   0.000000 )  
               a(2) = (  -0.500000   0.866025   0.000000 )  
               a(3) = (   0.000000   0.000000   1.481748 )  

     reciprocal axes: (cart. coord. in units 2 pi/alat)
               b(1) = (  1.000000  0.577350  0.000000 )  
               b(2) = (  0.000000  1.154701  0.000000 )  
               b(3) = (  0.000000  0.000000  0.674878 )  


     PseudoPot. # 1 for H  read from file:
     ./H.UPF
     MD5 check sum: df8e43189db5a2d7f03d0dd74d71ce72
     Pseudo is Norm-conserving, Zval =  1.0
     Generated in analytical, separable form
     Using radial grid of  929 points,  0 beta functions with: 

     PseudoPot. # 2 for Th read from file:
     ./Th.UPF
     MD5 check sum: a439cebac19eeec3fe133fa10c950477
     Pseudo is Norm-conserving + core correction, Zval =  4.0
     Generated using "atomic" code by A. Dal Corso  v.5.0.99 svn rev. 10869
     Using radial grid of 1289 points,  3 beta functions with: 
                l(1) =   1
                l(2) =   2
                l(3) =   3

     atomic species   valence    mass     pseudopotential
        H              1.00     1.00794     H ( 1.00)
        Th             4.00   232.03806     Th( 1.00)

     24 Sym. Ops., with inversion, found



   Cartesian axes

     site n.     atom                  positions (alat units)
         1           Th  tau(   1) = (   0.5000000   0.2886751   1.1113112  )
         2           Th  tau(   2) = (   0.0000000   0.5773503   0.3704371  )
         3           H   tau(   3) = (   0.0000000   0.0000000   0.3704371  )
         4           H   tau(   4) = (   0.0000000   0.0000000   1.1113112  )
         5           H   tau(   5) = (   0.5000000   0.2886751   0.2298328  )
         6           H   tau(   6) = (   0.0000000   0.5773503   0.9707069  )
         7           H   tau(   7) = (  -0.0000000   0.5773503   1.2519155  )
         8           H   tau(   8) = (   0.5000000   0.2886751   0.5110414  )
         9           H   tau(   9) = (   0.5000000   0.6095530   0.0932611  )
        10           H   tau(  10) = (   0.2221116   0.1282362   0.0932611  )
        11           H   tau(  11) = (   0.7778884   0.1282362   0.0932611  )
        12           H   tau(  12) = (   0.0000000   0.2564724   0.8341353  )
        13           H   tau(  13) = (   0.2778884   0.7377892   0.8341353  )
        14           H   tau(  14) = (  -0.2778884   0.7377892   0.8341353  )
        15           H   tau(  15) = (   0.2778884   0.7377892   1.3884871  )
        16           H   tau(  16) = (  -0.0000000   0.2564724   1.3884871  )
        17           H   tau(  17) = (  -0.2778884   0.7377892   1.3884871  )
        18           H   tau(  18) = (   0.2221116   0.1282362   0.6476130  )
        19           H   tau(  19) = (   0.5000000   0.6095530   0.6476130  )
        20           H   tau(  20) = (   0.7778884   0.1282362   0.6476130  )

     number of k points=  1872 (tetrahedron method)

     Number of k-points >= 100: set verbosity='high' to print them.

     Dense  grid:    40967 G-vectors     FFT dimensions: (  40,  40,  60)

     Estimated max dynamical RAM per process >       2.79 MB

     Estimated total dynamical RAM >      55.72 MB

     The potential is recalculated from file :
     ./_ph0/Th2H18.q_1/Th2H18.save/charge-density

     Starting wfcs are   50 atomic wfcs

     Band Structure Calculation
     Davidson diagonalization with overlap
     c_bands:  1 eigenvalues not converged
     c_bands:  1 eigenvalues not converged
     c_bands:  1 eigenvalues not converged
     c_bands:  1 eigenvalues not converged
     c_bands:  1 eigenvalues not converged
     c_bands:  1 eigenvalues not converged
     c_bands:  1 eigenvalues not converged
     c_bands:  1 eigenvalues not converged
     c_bands:  1 eigenvalues not converged
     c_bands:  1 eigenvalues not converged
     c_bands:  1 eigenvalues not converged
     c_bands:  1 eigenvalues not converged
     c_bands:  1 eigenvalues not converged
     c_bands:  1 eigenvalues not converged
     c_bands:  1 eigenvalues not converged
     c_bands:  1 eigenvalues not converged
     c_bands:  1 eigenvalues not converged
     c_bands:  1 eigenvalues not converged
     c_bands:  1 eigenvalues not converged
     c_bands:  1 eigenvalues not converged
     c_bands:  1 eigenvalues not converged
     c_bands:  1 eigenvalues not converged
     c_bands:  1 eigenvalues not converged
     c_bands:  1 eigenvalues not converged
     c_bands:  1 eigenvalues not converged
     c_bands:  1 eigenvalues not converged
     c_bands:  1 eigenvalues not converged
     c_bands:  1 eigenvalues not converged
     c_bands:  1 eigenvalues not converged
     c_bands:  1 eigenvalues not converged
     c_bands:  1 eigenvalues not converged
     c_bands:  1 eigenvalues not converged
     c_bands:  1 eigenvalues not converged
     c_bands:  1 eigenvalues not converged
     c_bands:  1 eigenvalues not converged
     c_bands:  1 eigenvalues not converged
     c_bands:  1 eigenvalues not converged
     c_bands:  1 eigenvalues not converged
     c_bands:  1 eigenvalues not converged
     c_bands:  1 eigenvalues not converged
     c_bands:  1 eigenvalues not converged
     c_bands:  1 eigenvalues not converged
     c_bands:  1 eigenvalues not converged
     c_bands:  1 eigenvalues not converged
     c_bands:  1 eigenvalues not converged
     c_bands:  1 eigenvalues not converged
     c_bands:  1 eigenvalues not converged
     c_bands:  1 eigenvalues not converged
     c_bands:  1 eigenvalues not converged
     c_bands:  1 eigenvalues not converged
     c_bands:  1 eigenvalues not converged
     c_bands:  1 eigenvalues not converged
     c_bands:  1 eigenvalues not converged
     c_bands:  1 eigenvalues not converged
     c_bands:  1 eigenvalues not converged
     c_bands:  1 eigenvalues not converged
     c_bands:  1 eigenvalues not converged
     c_bands:  1 eigenvalues not converged
     c_bands:  1 eigenvalues not converged
     c_bands:  1 eigenvalues not converged
     c_bands:  1 eigenvalues not converged
     c_bands:  1 eigenvalues not converged
     c_bands:  1 eigenvalues not converged
     c_bands:  1 eigenvalues not converged
     c_bands:  1 eigenvalues not converged
     c_bands:  1 eigenvalues not converged
     c_bands:  1 eigenvalues not converged
     c_bands:  1 eigenvalues not converged
     c_bands:  1 eigenvalues not converged
     c_bands:  1 eigenvalues not converged
     c_bands:  1 eigenvalues not converged
     c_bands:  1 eigenvalues not converged
     c_bands:  1 eigenvalues not converged
     c_bands:  1 eigenvalues not converged
     c_bands:  1 eigenvalues not converged
     c_bands:  1 eigenvalues not converged
     c_bands:  1 eigenvalues not converged
     c_bands:  1 eigenvalues not converged
     c_bands:  1 eigenvalues not converged
     c_bands:  1 eigenvalues not converged
     c_bands:  1 eigenvalues not converged
     c_bands:  1 eigenvalues not converged
     c_bands:  1 eigenvalues not converged
     c_bands:  1 eigenvalues not converged
     c_bands:  1 eigenvalues not converged
     c_bands:  1 eigenvalues not converged
     c_bands:  1 eigenvalues not converged
     c_bands:  1 eigenvalues not converged
     c_bands:  1 eigenvalues not converged
     c_bands:  1 eigenvalues not converged
     c_bands:  1 eigenvalues not converged
     c_bands:  1 eigenvalues not converged
     c_bands:  1 eigenvalues not converged
     c_bands:  1 eigenvalues not converged
     c_bands:  1 eigenvalues not converged
     c_bands:  1 eigenvalues not converged
     c_bands:  1 eigenvalues not converged
     c_bands:  1 eigenvalues not converged
     c_bands:  1 eigenvalues not converged
     c_bands:  1 eigenvalues not converged
     c_bands:  1 eigenvalues not converged
     c_bands:  1 eigenvalues not converged
     c_bands:  1 eigenvalues not converged
     c_bands:  1 eigenvalues not converged
     c_bands:  1 eigenvalues not converged
     c_bands:  1 eigenvalues not converged
     c_bands:  1 eigenvalues not converged
     c_bands:  1 eigenvalues not converged
     c_bands:  1 eigenvalues not converged
     c_bands:  1 eigenvalues not converged
     c_bands:  1 eigenvalues not converged
     c_bands:  1 eigenvalues not converged
     c_bands:  1 eigenvalues not converged
     c_bands:  1 eigenvalues not converged
     c_bands:  1 eigenvalues not converged
     c_bands:  1 eigenvalues not converged

     ethr =  3.85E-11,  avg # of iterations = 69.8

     total cpu time spent up to now is      316.9 secs

     End of band structure calculation

     Number of k-points >= 100: set verbosity='high' to print the bands.

     the Fermi energy is    13.0732 ev

     Writing config to output data dir ./_ph0/Th2H18.q_1/Th2H18.save/
 
     [dfpt_tetra]  Dos(E_F)[/Ry] :   0.1466007E+02

      Electron-phonon for Th2H18                                                

     bravais-lattice index     =            4
     lattice parameter (alat)  =       6.9107  a.u.
     unit-cell volume          =     423.5189 (a.u.)^3
     number of atoms/cell      =           20
     number of atomic types    =            2
     kinetic-energy cut-off    =      80.0000  Ry
     charge density cut-off    =     320.0000  Ry
     convergence threshold     =      1.0E-08
     beta                      =       0.7000
     number of iterations used =            4
     Exchange-correlation= PZ
                           (   1   1   0   0   0   0   0)


     celldm(1)=    6.91071  celldm(2)=    0.00000  celldm(3)=    1.48175
     celldm(4)=    0.00000  celldm(5)=    0.00000  celldm(6)=    0.00000

     crystal axes: (cart. coord. in units of alat)
               a(1) = (  1.0000  0.0000  0.0000 )  
               a(2) = ( -0.5000  0.8660  0.0000 )  
               a(3) = (  0.0000  0.0000  1.4817 )  

     reciprocal axes: (cart. coord. in units 2 pi/alat)
               b(1) = (  1.0000  0.5774  0.0000 )  
               b(2) = (  0.0000  1.1547  0.0000 )  
               b(3) = (  0.0000  0.0000  0.6749 )  


     Atoms inside the unit cell: 

     Cartesian axes

     site n.  atom      mass           positions (alat units)
        1     Th 232.0381   tau(    1) = (    0.50000    0.28868    1.11131  )
        2     Th 232.0381   tau(    2) = (    0.00000    0.57735    0.37044  )
        3     H    1.0079   tau(    3) = (    0.00000    0.00000    0.37044  )
        4     H    1.0079   tau(    4) = (    0.00000    0.00000    1.11131  )
        5     H    1.0079   tau(    5) = (    0.50000    0.28868    0.22983  )
        6     H    1.0079   tau(    6) = (    0.00000    0.57735    0.97071  )
        7     H    1.0079   tau(    7) = (   -0.00000    0.57735    1.25192  )
        8     H    1.0079   tau(    8) = (    0.50000    0.28868    0.51104  )
        9     H    1.0079   tau(    9) = (    0.50000    0.60955    0.09326  )
       10     H    1.0079   tau(   10) = (    0.22211    0.12824    0.09326  )
       11     H    1.0079   tau(   11) = (    0.77789    0.12824    0.09326  )
       12     H    1.0079   tau(   12) = (    0.00000    0.25647    0.83414  )
       13     H    1.0079   tau(   13) = (    0.27789    0.73779    0.83414  )
       14     H    1.0079   tau(   14) = (   -0.27789    0.73779    0.83414  )
       15     H    1.0079   tau(   15) = (    0.27789    0.73779    1.38849  )
       16     H    1.0079   tau(   16) = (   -0.00000    0.25647    1.38849  )
       17     H    1.0079   tau(   17) = (   -0.27789    0.73779    1.38849  )
       18     H    1.0079   tau(   18) = (    0.22211    0.12824    0.64761  )
       19     H    1.0079   tau(   19) = (    0.50000    0.60955    0.64761  )
       20     H    1.0079   tau(   20) = (    0.77789    0.12824    0.64761  )

     Computing dynamical matrix for 
                    q = (   0.1250000   0.2165064   0.0843598 )
 
      2 Sym.Ops. (no q -> -q+G )


     G cutoff =  387.1109  (   2051 G-vectors)     FFT grid: ( 40, 40, 60)
     number of k points=  1872

     PseudoPot. # 1 for H  read from file:
     ./H.UPF
     MD5 check sum: df8e43189db5a2d7f03d0dd74d71ce72
     Pseudo is Norm-conserving, Zval =  1.0
     Generated in analytical, separable form
     Using radial grid of  929 points,  0 beta functions with: 

     PseudoPot. # 2 for Th read from file:
     ./Th.UPF
     MD5 check sum: a439cebac19eeec3fe133fa10c950477
     Pseudo is Norm-conserving + core correction, Zval =  4.0
     Generated using "atomic" code by A. Dal Corso  v.5.0.99 svn rev. 10869
     Using radial grid of 1289 points,  3 beta functions with: 
                l(1) =   1
                l(2) =   2
                l(3) =   3

     Mode symmetry, C_s (m)     point group:


     Atomic displacements:
     There are   60 irreducible representations

     Representation     1      1 modes -  To be done

     Representation     2      1 modes -  To be done

     Representation     3      1 modes -  To be done

     Representation     4      1 modes -  To be done

     Representation     5      1 modes -  To be done

     Representation     6      1 modes -  To be done

     Representation     7      1 modes -  To be done

     Representation     8      1 modes -  To be done

     Representation     9      1 modes -  To be done

     Representation    10      1 modes -  To be done

     Representation    11      1 modes -  To be done

     Representation    12      1 modes -  To be done

     Representation    13      1 modes -  To be done

     Representation    14      1 modes -  To be done

     Representation    15      1 modes -  To be done

     Representation    16      1 modes -  To be done

     Representation    17      1 modes -  To be done

     Representation    18      1 modes -  To be done

     Representation    19      1 modes -  To be done

     Representation    20      1 modes -  To be done

     Representation    21      1 modes -  To be done

     Representation    22      1 modes -  To be done

     Representation    23      1 modes -  To be done

     Representation    24      1 modes -  To be done

     Representation    25      1 modes -  To be done

     Representation    26      1 modes -  To be done

     Representation    27      1 modes -  To be done

     Representation    28      1 modes -  To be done

     Representation    29      1 modes -  To be done

     Representation    30      1 modes -  To be done

     Representation    31      1 modes -  To be done

     Representation    32      1 modes -  To be done

     Representation    33      1 modes -  To be done

     Representation    34      1 modes -  To be done

     Representation    35      1 modes -  To be done

     Representation    36      1 modes -  To be done

     Representation    37      1 modes -  To be done

     Representation    38      1 modes -  To be done

     Representation    39      1 modes -  To be done

     Representation    40      1 modes -  To be done

     Representation    41      1 modes -  To be done

     Representation    42      1 modes -  To be done

     Representation    43      1 modes -  To be done

     Representation    44      1 modes -  To be done

     Representation    45      1 modes -  To be done

     Representation    46      1 modes -  To be done

     Representation    47      1 modes -  To be done

     Representation    48      1 modes -  To be done

     Representation    49      1 modes -  To be done

     Representation    50      1 modes -  To be done

     Representation    51      1 modes -  To be done

     Representation    52      1 modes -  To be done

     Representation    53      1 modes -  To be done

     Representation    54      1 modes -  To be done

     Representation    55      1 modes -  To be done

     Representation    56      1 modes -  To be done

     Representation    57      1 modes -  To be done

     Representation    58      1 modes -  To be done

     Representation    59      1 modes -  To be done

     Representation    60      1 modes -  To be done


     PHONON       :   5m 2.66s CPU   5m21.18s WALL

     Reading dVscf from file dv
     Reading dynamics matrix from file Th2H18.dyn1

     Diagonalizing the dynamical matrix

     q = (    0.125000000   0.216506351   0.084359808 ) 

 **************************************************************************
     freq (    1) =     -22.415305 [THz] =    -747.694100 [cm-1]
     freq (    2) =       3.038716 [THz] =     101.360668 [cm-1]
     freq (    3) =       3.387492 [THz] =     112.994563 [cm-1]
     freq (    4) =       5.012574 [THz] =     167.201470 [cm-1]
     freq (    5) =       5.141777 [THz] =     171.511233 [cm-1]
     freq (    6) =       5.430104 [THz] =     181.128783 [cm-1]
     freq (    7) =       6.769471 [THz] =     225.805240 [cm-1]
     freq (    8) =      20.922174 [THz] =     697.888601 [cm-1]
     freq (    9) =      24.692364 [THz] =     823.648603 [cm-1]
     freq (   10) =      25.117105 [THz] =     837.816436 [cm-1]
     freq (   11) =      26.917509 [THz] =     897.871446 [cm-1]
     freq (   12) =      28.044728 [THz] =     935.471430 [cm-1]
     freq (   13) =      30.068269 [THz] =    1002.969478 [cm-1]
     freq (   14) =      30.716269 [THz] =    1024.584440 [cm-1]
     freq (   15) =      31.053895 [THz] =    1035.846436 [cm-1]
     freq (   16) =      31.087560 [THz] =    1036.969393 [cm-1]
     freq (   17) =      33.372808 [THz] =    1113.197044 [cm-1]
     freq (   18) =      33.759695 [THz] =    1126.102204 [cm-1]
     freq (   19) =      34.164806 [THz] =    1139.615261 [cm-1]
     freq (   20) =      35.177579 [THz] =    1173.397727 [cm-1]
     freq (   21) =      35.279256 [THz] =    1176.789309 [cm-1]
     freq (   22) =      36.185874 [THz] =    1207.030837 [cm-1]
     freq (   23) =      36.288879 [THz] =    1210.466722 [cm-1]
     freq (   24) =      37.097974 [THz] =    1237.455204 [cm-1]
     freq (   25) =      37.135538 [THz] =    1238.708208 [cm-1]
     freq (   26) =      39.799964 [THz] =    1327.583885 [cm-1]
     freq (   27) =      40.026049 [THz] =    1335.125276 [cm-1]
     freq (   28) =      41.933209 [THz] =    1398.741293 [cm-1]
     freq (   29) =      43.376606 [THz] =    1446.887835 [cm-1]
     freq (   30) =      43.872916 [THz] =    1463.442946 [cm-1]
     freq (   31) =      44.048665 [THz] =    1469.305316 [cm-1]
     freq (   32) =      44.061466 [THz] =    1469.732310 [cm-1]
     freq (   33) =      44.174897 [THz] =    1473.515958 [cm-1]
     freq (   34) =      44.320896 [THz] =    1478.385945 [cm-1]
     freq (   35) =      44.705233 [THz] =    1491.206069 [cm-1]
     freq (   36) =      44.989961 [THz] =    1500.703550 [cm-1]
     freq (   37) =      45.312375 [THz] =    1511.458138 [cm-1]
     freq (   38) =      45.656464 [THz] =    1522.935715 [cm-1]
     freq (   39) =      46.787289 [THz] =    1560.655983 [cm-1]
     freq (   40) =      46.979122 [THz] =    1567.054830 [cm-1]
     freq (   41) =      47.540410 [THz] =    1585.777384 [cm-1]
     freq (   42) =      47.613619 [THz] =    1588.219389 [cm-1]
     freq (   43) =      47.967855 [THz] =    1600.035414 [cm-1]
     freq (   44) =      48.203385 [THz] =    1607.891851 [cm-1]
     freq (   45) =      48.915638 [THz] =    1631.650068 [cm-1]
     freq (   46) =      49.236043 [THz] =    1642.337609 [cm-1]
     freq (   47) =      49.920677 [THz] =    1665.174554 [cm-1]
     freq (   48) =      50.649206 [THz] =    1689.475648 [cm-1]
     freq (   49) =      51.068984 [THz] =    1703.477960 [cm-1]
     freq (   50) =      51.828845 [THz] =    1728.824181 [cm-1]
     freq (   51) =      52.709492 [THz] =    1758.199413 [cm-1]
     freq (   52) =      53.046291 [THz] =    1769.433818 [cm-1]
     freq (   53) =      53.394012 [THz] =    1781.032544 [cm-1]
     freq (   54) =      53.636748 [THz] =    1789.129337 [cm-1]
     freq (   55) =      55.041281 [THz] =    1835.979522 [cm-1]
     freq (   56) =      55.065197 [THz] =    1836.777251 [cm-1]
     freq (   57) =      55.963295 [THz] =    1866.734574 [cm-1]
     freq (   58) =      56.640602 [THz] =    1889.327116 [cm-1]
     freq (   59) =      57.253634 [THz] =    1909.775656 [cm-1]
     freq (   60) =      58.128585 [THz] =    1938.960883 [cm-1]
 **************************************************************************

     [elph_tetra]   Lowest band which contains FS :         13
     [elph_tetra]  Highest band which contains FS :         15
     [elph_tetra]    # of bands which contains FS :          3
 
     Tetrahedron method
     DOS =  7.330036 states/spin/Ry/Unit Cell at Ef= 13.073170 eV
     double delta at Ef = 98.957458
     lambda(    1)=  0.0000   gamma=    0.00 GHz
     lambda(    2)=  0.0269   gamma=    1.74 GHz
     lambda(    3)=  0.0066   gamma=    0.53 GHz
     lambda(    4)=  0.0047   gamma=    0.83 GHz
     lambda(    5)=  0.0061   gamma=    1.13 GHz
     lambda(    6)=  0.0080   gamma=    1.65 GHz
     lambda(    7)=  0.0092   gamma=    2.94 GHz
     lambda(    8)=  0.0344   gamma=  105.48 GHz
     lambda(    9)=  0.0351   gamma=  149.90 GHz
     lambda(   10)=  0.0309   gamma=  136.35 GHz
     lambda(   11)=  0.0157   gamma=   79.85 GHz
     lambda(   12)=  0.0173   gamma=   95.23 GHz
     lambda(   13)=  0.0119   gamma=   75.34 GHz
     lambda(   14)=  0.0067   gamma=   44.58 GHz
     lambda(   15)=  0.0086   gamma=   58.05 GHz
     lambda(   16)=  0.0197   gamma=  132.96 GHz
     lambda(   17)=  0.0064   gamma=   49.93 GHz
     lambda(   18)=  0.0086   gamma=   68.78 GHz
     lambda(   19)=  0.0145   gamma=  118.53 GHz
     lambda(   20)=  0.0108   gamma=   93.49 GHz
     lambda(   21)=  0.0118   gamma=  102.64 GHz
     lambda(   22)=  0.0119   gamma=  109.08 GHz
     lambda(   23)=  0.0125   gamma=  115.45 GHz
     lambda(   24)=  0.0129   gamma=  123.89 GHz
     lambda(   25)=  0.0078   gamma=   75.36 GHz
     lambda(   26)=  0.0204   gamma=  226.43 GHz
     lambda(   27)=  0.0175   gamma=  196.29 GHz
     lambda(   28)=  0.0105   gamma=  129.08 GHz
     lambda(   29)=  0.0067   gamma=   87.99 GHz
     lambda(   30)=  0.0113   gamma=  152.13 GHz
     lambda(   31)=  0.0166   gamma=  225.02 GHz
     lambda(   32)=  0.0110   gamma=  149.01 GHz
     lambda(   33)=  0.0095   gamma=  130.09 GHz
     lambda(   34)=  0.0114   gamma=  156.88 GHz
     lambda(   35)=  0.0102   gamma=  142.86 GHz
     lambda(   36)=  0.0061   gamma=   87.13 GHz
     lambda(   37)=  0.0057   gamma=   82.44 GHz
     lambda(   38)=  0.0046   gamma=   67.34 GHz
     lambda(   39)=  0.0057   gamma=   87.85 GHz
     lambda(   40)=  0.0071   gamma=  110.33 GHz
     lambda(   41)=  0.0035   gamma=   55.37 GHz
     lambda(   42)=  0.0052   gamma=   83.30 GHz
     lambda(   43)=  0.0052   gamma=   83.18 GHz
     lambda(   44)=  0.0121   gamma=  197.53 GHz
     lambda(   45)=  0.0058   gamma=   97.87 GHz
     lambda(   46)=  0.0075   gamma=  127.84 GHz
     lambda(   47)=  0.0064   gamma=  111.33 GHz
     lambda(   48)=  0.0049   gamma=   87.59 GHz
     lambda(   49)=  0.0045   gamma=   82.95 GHz
     lambda(   50)=  0.0051   gamma=   95.34 GHz
     lambda(   51)=  0.0074   gamma=  143.42 GHz
     lambda(   52)=  0.0053   gamma=  105.35 GHz
     lambda(   53)=  0.0036   gamma=   70.98 GHz
     lambda(   54)=  0.0139   gamma=  280.44 GHz
     lambda(   55)=  0.0042   gamma=   88.91 GHz
     lambda(   56)=  0.0047   gamma=  100.47 GHz
     lambda(   57)=  0.0077   gamma=  169.47 GHz
     lambda(   58)=  0.0063   gamma=  141.27 GHz
     lambda(   59)=  0.0092   gamma=  211.54 GHz
     lambda(   60)=  0.0047   gamma=  110.64 GHz
 
     Number of q in the star =   12
     List of q in the star:
          1   0.125000000   0.216506351   0.084359808
          2  -0.125000000   0.216506351  -0.084359808
          3   0.125000000  -0.216506351  -0.084359808
          4  -0.125000000   0.216506351   0.084359808
          5   0.250000000  -0.000000000   0.084359808
          6  -0.250000000   0.000000000   0.084359808
          7   0.125000000  -0.216506351   0.084359808
          8  -0.125000000  -0.216506351  -0.084359808
          9   0.250000000   0.000000000  -0.084359808
         10  -0.250000000   0.000000000  -0.084359808
         11   0.125000000   0.216506351  -0.084359808
         12  -0.125000000  -0.216506351   0.084359808

     Calculation of q =    0.1250000   0.2165064   0.2530794
     [opt_tetra]  Optimized tetrahedron method is used.
 
     Parallelization info
     --------------------
     sticks:   dense  smooth     PW     G-vecs:    dense   smooth      PW
     Min          52      52     15                 2048     2048     343
     Max          54      54     16                 2051     2051     350
     Sum        1045    1045    313                40967    40967    6945
 
     Using Slab Decomposition
 

     Title: 
      Electron-phonon for Th2H18                                                


     bravais-lattice index     =            4
     lattice parameter (alat)  =       6.9107  a.u.
     unit-cell volume          =     423.5189 (a.u.)^3
     number of atoms/cell      =           20
     number of atomic types    =            2
     number of electrons       =        26.00
     number of Kohn-Sham states=           17
     kinetic-energy cutoff     =      80.0000  Ry
     charge density cutoff     =     320.0000  Ry
     Exchange-correlation= PZ
                           (   1   1   0   0   0   0   0)

     celldm(1)=   6.910708  celldm(2)=   0.000000  celldm(3)=   1.481748
     celldm(4)=   0.000000  celldm(5)=   0.000000  celldm(6)=   0.000000

     crystal axes: (cart. coord. in units of alat)
               a(1) = (   1.000000   0.000000   0.000000 )  
               a(2) = (  -0.500000   0.866025   0.000000 )  
               a(3) = (   0.000000   0.000000   1.481748 )  

     reciprocal axes: (cart. coord. in units 2 pi/alat)
               b(1) = (  1.000000  0.577350  0.000000 )  
               b(2) = (  0.000000  1.154701  0.000000 )  
               b(3) = (  0.000000  0.000000  0.674878 )  


     PseudoPot. # 1 for H  read from file:
     ./H.UPF
     MD5 check sum: df8e43189db5a2d7f03d0dd74d71ce72
     Pseudo is Norm-conserving, Zval =  1.0
     Generated in analytical, separable form
     Using radial grid of  929 points,  0 beta functions with: 

     PseudoPot. # 2 for Th read from file:
     ./Th.UPF
     MD5 check sum: a439cebac19eeec3fe133fa10c950477
     Pseudo is Norm-conserving + core correction, Zval =  4.0
     Generated using "atomic" code by A. Dal Corso  v.5.0.99 svn rev. 10869
     Using radial grid of 1289 points,  3 beta functions with: 
                l(1) =   1
                l(2) =   2
                l(3) =   3

     atomic species   valence    mass     pseudopotential
        H              1.00     1.00794     H ( 1.00)
        Th             4.00   232.03806     Th( 1.00)

     24 Sym. Ops., with inversion, found



   Cartesian axes

     site n.     atom                  positions (alat units)
         1           Th  tau(   1) = (   0.5000000   0.2886751   1.1113112  )
         2           Th  tau(   2) = (   0.0000000   0.5773503   0.3704371  )
         3           H   tau(   3) = (   0.0000000   0.0000000   0.3704371  )
         4           H   tau(   4) = (   0.0000000   0.0000000   1.1113112  )
         5           H   tau(   5) = (   0.5000000   0.2886751   0.2298328  )
         6           H   tau(   6) = (   0.0000000   0.5773503   0.9707069  )
         7           H   tau(   7) = (  -0.0000000   0.5773503   1.2519155  )
         8           H   tau(   8) = (   0.5000000   0.2886751   0.5110414  )
         9           H   tau(   9) = (   0.5000000   0.6095530   0.0932611  )
        10           H   tau(  10) = (   0.2221116   0.1282362   0.0932611  )
        11           H   tau(  11) = (   0.7778884   0.1282362   0.0932611  )
        12           H   tau(  12) = (   0.0000000   0.2564724   0.8341353  )
        13           H   tau(  13) = (   0.2778884   0.7377892   0.8341353  )
        14           H   tau(  14) = (  -0.2778884   0.7377892   0.8341353  )
        15           H   tau(  15) = (   0.2778884   0.7377892   1.3884871  )
        16           H   tau(  16) = (  -0.0000000   0.2564724   1.3884871  )
        17           H   tau(  17) = (  -0.2778884   0.7377892   1.3884871  )
        18           H   tau(  18) = (   0.2221116   0.1282362   0.6476130  )
        19           H   tau(  19) = (   0.5000000   0.6095530   0.6476130  )
        20           H   tau(  20) = (   0.7778884   0.1282362   0.6476130  )

     number of k points=  1872 (tetrahedron method)

     Number of k-points >= 100: set verbosity='high' to print them.

     Dense  grid:    40967 G-vectors     FFT dimensions: (  40,  40,  60)

     Estimated max dynamical RAM per process >       2.79 MB

     Estimated total dynamical RAM >      55.82 MB

     The potential is recalculated from file :
     ./_ph0/Th2H18.q_2/Th2H18.save/charge-density

     Starting wfcs are   50 atomic wfcs

     Band Structure Calculation
     Davidson diagonalization with overlap
     c_bands:  1 eigenvalues not converged
     c_bands:  1 eigenvalues not converged
     c_bands:  1 eigenvalues not converged
     c_bands:  1 eigenvalues not converged
     c_bands:  1 eigenvalues not converged
     c_bands:  1 eigenvalues not converged
     c_bands:  1 eigenvalues not converged
     c_bands:  1 eigenvalues not converged
     c_bands:  1 eigenvalues not converged
     c_bands:  1 eigenvalues not converged
     c_bands:  1 eigenvalues not converged
     c_bands:  1 eigenvalues not converged
     c_bands:  1 eigenvalues not converged
     c_bands:  1 eigenvalues not converged
     c_bands:  1 eigenvalues not converged
     c_bands:  1 eigenvalues not converged
     c_bands:  1 eigenvalues not converged
     c_bands:  1 eigenvalues not converged
     c_bands:  1 eigenvalues not converged
     c_bands:  1 eigenvalues not converged
     c_bands:  1 eigenvalues not converged
     c_bands:  1 eigenvalues not converged
     c_bands:  1 eigenvalues not converged
     c_bands:  1 eigenvalues not converged
     c_bands:  1 eigenvalues not converged
     c_bands:  1 eigenvalues not converged
     c_bands:  1 eigenvalues not converged
     c_bands:  1 eigenvalues not converged
     c_bands:  1 eigenvalues not converged
     c_bands:  1 eigenvalues not converged
     c_bands:  1 eigenvalues not converged
     c_bands:  1 eigenvalues not converged
     c_bands:  1 eigenvalues not converged
     c_bands:  1 eigenvalues not converged
     c_bands:  1 eigenvalues not converged
     c_bands:  1 eigenvalues not converged
     c_bands:  1 eigenvalues not converged
     c_bands:  1 eigenvalues not converged
     c_bands:  1 eigenvalues not converged
     c_bands:  1 eigenvalues not converged
     c_bands:  1 eigenvalues not converged
     c_bands:  1 eigenvalues not converged
     c_bands:  1 eigenvalues not converged
     c_bands:  1 eigenvalues not converged
     c_bands:  1 eigenvalues not converged
     c_bands:  1 eigenvalues not converged
     c_bands:  1 eigenvalues not converged
     c_bands:  1 eigenvalues not converged
     c_bands:  1 eigenvalues not converged
     c_bands:  1 eigenvalues not converged
     c_bands:  1 eigenvalues not converged
     c_bands:  1 eigenvalues not converged
     c_bands:  1 eigenvalues not converged
     c_bands:  1 eigenvalues not converged
     c_bands:  1 eigenvalues not converged
     c_bands:  1 eigenvalues not converged
     c_bands:  1 eigenvalues not converged
     c_bands:  1 eigenvalues not converged
     c_bands:  1 eigenvalues not converged
     c_bands:  1 eigenvalues not converged
     c_bands:  1 eigenvalues not converged
     c_bands:  1 eigenvalues not converged
     c_bands:  1 eigenvalues not converged
     c_bands:  1 eigenvalues not converged
     c_bands:  1 eigenvalues not converged
     c_bands:  1 eigenvalues not converged
     c_bands:  1 eigenvalues not converged
     c_bands:  1 eigenvalues not converged
     c_bands:  1 eigenvalues not converged
     c_bands:  1 eigenvalues not converged
     c_bands:  1 eigenvalues not converged
     c_bands:  1 eigenvalues not converged
     c_bands:  1 eigenvalues not converged
     c_bands:  1 eigenvalues not converged
     c_bands:  1 eigenvalues not converged
     c_bands:  1 eigenvalues not converged
     c_bands:  1 eigenvalues not converged
     c_bands:  1 eigenvalues not converged
     c_bands:  1 eigenvalues not converged
     c_bands:  1 eigenvalues not converged
     c_bands:  1 eigenvalues not converged
     c_bands:  1 eigenvalues not converged
     c_bands:  1 eigenvalues not converged
     c_bands:  1 eigenvalues not converged
     c_bands:  1 eigenvalues not converged
     c_bands:  1 eigenvalues not converged
     c_bands:  1 eigenvalues not converged
     c_bands:  1 eigenvalues not converged
     c_bands:  1 eigenvalues not converged
     c_bands:  1 eigenvalues not converged
     c_bands:  1 eigenvalues not converged
     c_bands:  1 eigenvalues not converged
     c_bands:  1 eigenvalues not converged
     c_bands:  1 eigenvalues not converged
     c_bands:  1 eigenvalues not converged
     c_bands:  1 eigenvalues not converged
     c_bands:  1 eigenvalues not converged
     c_bands:  1 eigenvalues not converged
     c_bands:  1 eigenvalues not converged
     c_bands:  1 eigenvalues not converged
     c_bands:  1 eigenvalues not converged
     c_bands:  1 eigenvalues not converged
     c_bands:  1 eigenvalues not converged
     c_bands:  1 eigenvalues not converged
     c_bands:  1 eigenvalues not converged
     c_bands:  1 eigenvalues not converged
     c_bands:  1 eigenvalues not converged
     c_bands:  1 eigenvalues not converged
     c_bands:  1 eigenvalues not converged
     c_bands:  1 eigenvalues not converged
     c_bands:  1 eigenvalues not converged
     c_bands:  1 eigenvalues not converged
     c_bands:  1 eigenvalues not converged
     c_bands:  1 eigenvalues not converged
     c_bands:  1 eigenvalues not converged
     c_bands:  1 eigenvalues not converged

     ethr =  3.85E-11,  avg # of iterations = 69.8

     total cpu time spent up to now is      696.5 secs

     End of band structure calculation

     Number of k-points >= 100: set verbosity='high' to print the bands.

     the Fermi energy is    13.0732 ev

     Writing config to output data dir ./_ph0/Th2H18.q_2/Th2H18.save/
 
     [dfpt_tetra]  Dos(E_F)[/Ry] :   0.1466007E+02

      Electron-phonon for Th2H18                                                

     bravais-lattice index     =            4
     lattice parameter (alat)  =       6.9107  a.u.
     unit-cell volume          =     423.5189 (a.u.)^3
     number of atoms/cell      =           20
     number of atomic types    =            2
     kinetic-energy cut-off    =      80.0000  Ry
     charge density cut-off    =     320.0000  Ry
     convergence threshold     =      1.0E-08
     beta                      =       0.7000
     number of iterations used =            4
     Exchange-correlation= PZ
                           (   1   1   0   0   0   0   0)


     celldm(1)=    6.91071  celldm(2)=    0.00000  celldm(3)=    1.48175
     celldm(4)=    0.00000  celldm(5)=    0.00000  celldm(6)=    0.00000

     crystal axes: (cart. coord. in units of alat)
               a(1) = (  1.0000  0.0000  0.0000 )  
               a(2) = ( -0.5000  0.8660  0.0000 )  
               a(3) = (  0.0000  0.0000  1.4817 )  

     reciprocal axes: (cart. coord. in units 2 pi/alat)
               b(1) = (  1.0000  0.5774  0.0000 )  
               b(2) = (  0.0000  1.1547  0.0000 )  
               b(3) = (  0.0000  0.0000  0.6749 )  


     Atoms inside the unit cell: 

     Cartesian axes

     site n.  atom      mass           positions (alat units)
        1     Th 232.0381   tau(    1) = (    0.50000    0.28868    1.11131  )
        2     Th 232.0381   tau(    2) = (    0.00000    0.57735    0.37044  )
        3     H    1.0079   tau(    3) = (    0.00000    0.00000    0.37044  )
        4     H    1.0079   tau(    4) = (    0.00000    0.00000    1.11131  )
        5     H    1.0079   tau(    5) = (    0.50000    0.28868    0.22983  )
        6     H    1.0079   tau(    6) = (    0.00000    0.57735    0.97071  )
        7     H    1.0079   tau(    7) = (   -0.00000    0.57735    1.25192  )
        8     H    1.0079   tau(    8) = (    0.50000    0.28868    0.51104  )
        9     H    1.0079   tau(    9) = (    0.50000    0.60955    0.09326  )
       10     H    1.0079   tau(   10) = (    0.22211    0.12824    0.09326  )
       11     H    1.0079   tau(   11) = (    0.77789    0.12824    0.09326  )
       12     H    1.0079   tau(   12) = (    0.00000    0.25647    0.83414  )
       13     H    1.0079   tau(   13) = (    0.27789    0.73779    0.83414  )
       14     H    1.0079   tau(   14) = (   -0.27789    0.73779    0.83414  )
       15     H    1.0079   tau(   15) = (    0.27789    0.73779    1.38849  )
       16     H    1.0079   tau(   16) = (   -0.00000    0.25647    1.38849  )
       17     H    1.0079   tau(   17) = (   -0.27789    0.73779    1.38849  )
       18     H    1.0079   tau(   18) = (    0.22211    0.12824    0.64761  )
       19     H    1.0079   tau(   19) = (    0.50000    0.60955    0.64761  )
       20     H    1.0079   tau(   20) = (    0.77789    0.12824    0.64761  )

     Computing dynamical matrix for 
                    q = (   0.1250000   0.2165064   0.2530794 )
 
      2 Sym.Ops. (no q -> -q+G )


     G cutoff =  387.1109  (   2051 G-vectors)     FFT grid: ( 40, 40, 60)
     number of k points=  1872

     PseudoPot. # 1 for H  read from file:
     ./H.UPF
     MD5 check sum: df8e43189db5a2d7f03d0dd74d71ce72
     Pseudo is Norm-conserving, Zval =  1.0
     Generated in analytical, separable form
     Using radial grid of  929 points,  0 beta functions with: 

     PseudoPot. # 2 for Th read from file:
     ./Th.UPF
     MD5 check sum: a439cebac19eeec3fe133fa10c950477
     Pseudo is Norm-conserving + core correction, Zval =  4.0
     Generated using "atomic" code by A. Dal Corso  v.5.0.99 svn rev. 10869
     Using radial grid of 1289 points,  3 beta functions with: 
                l(1) =   1
                l(2) =   2
                l(3) =   3

     Mode symmetry, C_s (m)     point group:


     Atomic displacements:
     There are   60 irreducible representations

     Representation     1      1 modes -  To be done

     Representation     2      1 modes -  To be done

     Representation     3      1 modes -  To be done

     Representation     4      1 modes -  To be done

     Representation     5      1 modes -  To be done

     Representation     6      1 modes -  To be done

     Representation     7      1 modes -  To be done

     Representation     8      1 modes -  To be done

     Representation     9      1 modes -  To be done

     Representation    10      1 modes -  To be done

     Representation    11      1 modes -  To be done

     Representation    12      1 modes -  To be done

     Representation    13      1 modes -  To be done

     Representation    14      1 modes -  To be done

     Representation    15      1 modes -  To be done

     Representation    16      1 modes -  To be done

     Representation    17      1 modes -  To be done

     Representation    18      1 modes -  To be done

     Representation    19      1 modes -  To be done

     Representation    20      1 modes -  To be done

     Representation    21      1 modes -  To be done

     Representation    22      1 modes -  To be done

     Representation    23      1 modes -  To be done

     Representation    24      1 modes -  To be done

     Representation    25      1 modes -  To be done

     Representation    26      1 modes -  To be done

     Representation    27      1 modes -  To be done

     Representation    28      1 modes -  To be done

     Representation    29      1 modes -  To be done

     Representation    30      1 modes -  To be done

     Representation    31      1 modes -  To be done

     Representation    32      1 modes -  To be done

     Representation    33      1 modes -  To be done

     Representation    34      1 modes -  To be done

     Representation    35      1 modes -  To be done

     Representation    36      1 modes -  To be done

     Representation    37      1 modes -  To be done

     Representation    38      1 modes -  To be done

     Representation    39      1 modes -  To be done

     Representation    40      1 modes -  To be done

     Representation    41      1 modes -  To be done

     Representation    42      1 modes -  To be done

     Representation    43      1 modes -  To be done

     Representation    44      1 modes -  To be done

     Representation    45      1 modes -  To be done

     Representation    46      1 modes -  To be done

     Representation    47      1 modes -  To be done

     Representation    48      1 modes -  To be done

     Representation    49      1 modes -  To be done

     Representation    50      1 modes -  To be done

     Representation    51      1 modes -  To be done

     Representation    52      1 modes -  To be done

     Representation    53      1 modes -  To be done

     Representation    54      1 modes -  To be done

     Representation    55      1 modes -  To be done

     Representation    56      1 modes -  To be done

     Representation    57      1 modes -  To be done

     Representation    58      1 modes -  To be done

     Representation    59      1 modes -  To be done

     Representation    60      1 modes -  To be done


     PHONON       :  13m47.03s CPU  14m50.13s WALL

     Reading dVscf from file dv
     Reading dynamics matrix from file Th2H18.dyn2

     Diagonalizing the dynamical matrix

     q = (    0.125000000   0.216506351   0.253079423 ) 

 **************************************************************************
     freq (    1) =     -34.664891 [THz] =   -1156.296311 [cm-1]
     freq (    2) =      -7.301966 [THz] =    -243.567358 [cm-1]
     freq (    3) =       3.841106 [THz] =     128.125495 [cm-1]
     freq (    4) =       3.995401 [THz] =     133.272219 [cm-1]
     freq (    5) =       4.474961 [THz] =     149.268641 [cm-1]
     freq (    6) =       5.766036 [THz] =     192.334265 [cm-1]
     freq (    7) =       6.167752 [THz] =     205.734075 [cm-1]
     freq (    8) =      14.335879 [THz] =     478.193442 [cm-1]
     freq (    9) =      16.181396 [THz] =     539.753284 [cm-1]
     freq (   10) =      21.598502 [THz] =     720.448493 [cm-1]
     freq (   11) =      25.218777 [THz] =     841.207848 [cm-1]
     freq (   12) =      26.691544 [THz] =     890.334068 [cm-1]
     freq (   13) =      27.070400 [THz] =     902.971358 [cm-1]
     freq (   14) =      29.234238 [THz] =     975.149226 [cm-1]
     freq (   15) =      30.636698 [THz] =    1021.930243 [cm-1]
     freq (   16) =      31.317865 [THz] =    1044.651522 [cm-1]
     freq (   17) =      32.424211 [THz] =    1081.555256 [cm-1]
     freq (   18) =      32.788191 [THz] =    1093.696324 [cm-1]
     freq (   19) =      34.781599 [THz] =    1160.189246 [cm-1]
     freq (   20) =      35.201313 [THz] =    1174.189422 [cm-1]
     freq (   21) =      35.926723 [THz] =    1198.386472 [cm-1]
     freq (   22) =      35.961274 [THz] =    1199.538973 [cm-1]
     freq (   23) =      36.448829 [THz] =    1215.802069 [cm-1]
     freq (   24) =      37.484260 [THz] =    1250.340321 [cm-1]
     freq (   25) =      37.603105 [THz] =    1254.304573 [cm-1]
     freq (   26) =      38.637805 [THz] =    1288.818434 [cm-1]
     freq (   27) =      39.766700 [THz] =    1326.474316 [cm-1]
     freq (   28) =      40.094405 [THz] =    1337.405405 [cm-1]
     freq (   29) =      42.452216 [THz] =    1416.053518 [cm-1]
     freq (   30) =      43.073859 [THz] =    1436.789268 [cm-1]
     freq (   31) =      43.225515 [THz] =    1441.847981 [cm-1]
     freq (   32) =      43.441219 [THz] =    1449.043099 [cm-1]
     freq (   33) =      43.857507 [THz] =    1462.928967 [cm-1]
     freq (   34) =      43.875726 [THz] =    1463.536669 [cm-1]
     freq (   35) =      44.363101 [THz] =    1479.793773 [cm-1]
     freq (   36) =      44.384198 [THz] =    1480.497479 [cm-1]
     freq (   37) =      44.802473 [THz] =    1494.449639 [cm-1]
     freq (   38) =      44.997096 [THz] =    1500.941578 [cm-1]
     freq (   39) =      45.093373 [THz] =    1504.153026 [cm-1]
     freq (   40) =      45.456747 [THz] =    1516.273879 [cm-1]
     freq (   41) =      46.132158 [THz] =    1538.803158 [cm-1]
     freq (   42) =      47.160869 [THz] =    1573.117248 [cm-1]
     freq (   43) =      47.350131 [THz] =    1579.430360 [cm-1]
     freq (   44) =      47.641030 [THz] =    1589.133704 [cm-1]
     freq (   45) =      48.343073 [THz] =    1612.551332 [cm-1]
     freq (   46) =      49.368635 [THz] =    1646.760410 [cm-1]
     freq (   47) =      49.489302 [THz] =    1650.785410 [cm-1]
     freq (   48) =      49.778284 [THz] =    1660.424839 [cm-1]
     freq (   49) =      50.788493 [THz] =    1694.121758 [cm-1]
     freq (   50) =      50.877694 [THz] =    1697.097201 [cm-1]
     freq (   51) =      51.776702 [THz] =    1727.084865 [cm-1]
     freq (   52) =      51.840986 [THz] =    1729.229171 [cm-1]
     freq (   53) =      52.436729 [THz] =    1749.101001 [cm-1]
     freq (   54) =      52.745030 [THz] =    1759.384836 [cm-1]
     freq (   55) =      53.287615 [THz] =    1777.483522 [cm-1]
     freq (   56) =      53.333395 [THz] =    1779.010555 [cm-1]
     freq (   57) =      55.112863 [THz] =    1838.367214 [cm-1]
     freq (   58) =      55.158606 [THz] =    1839.893043 [cm-1]
     freq (   59) =      57.236241 [THz] =    1909.195502 [cm-1]
     freq (   60) =      57.781510 [THz] =    1927.383707 [cm-1]
 **************************************************************************

     [elph_tetra]   Lowest band which contains FS :         13
     [elph_tetra]  Highest band which contains FS :         15
     [elph_tetra]    # of bands which contains FS :          3
 
     Tetrahedron method
     DOS =  7.330036 states/spin/Ry/Unit Cell at Ef= 13.073170 eV
     double delta at Ef = 94.789693
     lambda(    1)=  0.0000   gamma=    0.00 GHz
     lambda(    2)=  0.0000   gamma=    0.00 GHz
     lambda(    3)=  0.0093   gamma=    0.97 GHz
     lambda(    4)=  0.0071   gamma=    0.79 GHz
     lambda(    5)=  0.0112   gamma=    1.56 GHz
     lambda(    6)=  0.0269   gamma=    6.26 GHz
     lambda(    7)=  0.0205   gamma=    5.46 GHz
     lambda(    8)=  0.0700   gamma=  100.73 GHz
     lambda(    9)=  0.0729   gamma=  133.57 GHz
     lambda(   10)=  0.0396   gamma=  129.29 GHz
     lambda(   11)=  0.0401   gamma=  178.64 GHz
     lambda(   12)=  0.0281   gamma=  140.32 GHz
     lambda(   13)=  0.0110   gamma=   56.45 GHz
     lambda(   14)=  0.0218   gamma=  130.42 GHz
     lambda(   15)=  0.0130   gamma=   85.10 GHz
     lambda(   16)=  0.0111   gamma=   76.35 GHz
     lambda(   17)=  0.0110   gamma=   80.96 GHz
     lambda(   18)=  0.0077   gamma=   58.30 GHz
     lambda(   19)=  0.0100   gamma=   85.05 GHz
     lambda(   20)=  0.0088   gamma=   76.40 GHz
     lambda(   21)=  0.0109   gamma=   98.54 GHz
     lambda(   22)=  0.0250   gamma=  226.14 GHz
     lambda(   23)=  0.0061   gamma=   56.44 GHz
     lambda(   24)=  0.0275   gamma=  270.27 GHz
     lambda(   25)=  0.0069   gamma=   68.23 GHz
     lambda(   26)=  0.0055   gamma=   57.83 GHz
     lambda(   27)=  0.0203   gamma=  224.75 GHz
     lambda(   28)=  0.0167   gamma=  187.91 GHz
     lambda(   29)=  0.0070   gamma=   88.60 GHz
     lambda(   30)=  0.0058   gamma=   75.66 GHz
     lambda(   31)=  0.0080   gamma=  104.69 GHz
     lambda(   32)=  0.0133   gamma=  175.38 GHz
     lambda(   33)=  0.0138   gamma=  186.23 GHz
     lambda(   34)=  0.0039   gamma=   52.37 GHz
     lambda(   35)=  0.0071   gamma=   97.33 GHz
     lambda(   36)=  0.0042   gamma=   57.81 GHz
     lambda(   37)=  0.0084   gamma=  118.53 GHz
     lambda(   38)=  0.0053   gamma=   74.56 GHz
     lambda(   39)=  0.0116   gamma=  165.61 GHz
     lambda(   40)=  0.0060   gamma=   86.68 GHz
     lambda(   41)=  0.0092   gamma=  136.99 GHz
     lambda(   42)=  0.0053   gamma=   82.63 GHz
     lambda(   43)=  0.0028   gamma=   44.38 GHz
     lambda(   44)=  0.0066   gamma=  105.58 GHz
     lambda(   45)=  0.0048   gamma=   78.26 GHz
     lambda(   46)=  0.0105   gamma=  178.65 GHz
     lambda(   47)=  0.0082   gamma=  141.39 GHz
     lambda(   48)=  0.0075   gamma=  130.02 GHz
     lambda(   49)=  0.0054   gamma=   96.70 GHz
     lambda(   50)=  0.0078   gamma=  142.22 GHz
     lambda(   51)=  0.0096   gamma=  180.88 GHz
     lambda(   52)=  0.0062   gamma=  116.37 GHz
     lambda(   53)=  0.0053   gamma=  102.24 GHz
     lambda(   54)=  0.0071   gamma=  137.72 GHz
     lambda(   55)=  0.0044   gamma=   87.42 GHz
     lambda(   56)=  0.0044   gamma=   87.77 GHz
     lambda(   57)=  0.0063   gamma=  133.21 GHz
     lambda(   58)=  0.0062   gamma=  132.84 GHz
     lambda(   59)=  0.0071   gamma=  163.77 GHz
     lambda(   60)=  0.0096   gamma=  224.57 GHz
 
     Number of q in the star =   12
     List of q in the star:
          1   0.125000000   0.216506351   0.253079423
          2  -0.125000000   0.216506351  -0.253079423
          3   0.125000000  -0.216506351  -0.253079423
          4  -0.125000000   0.216506351   0.253079423
          5   0.250000000  -0.000000000   0.253079423
          6  -0.250000000   0.000000000   0.253079423
          7   0.125000000  -0.216506351   0.253079423
          8  -0.125000000  -0.216506351  -0.253079423
          9   0.250000000   0.000000000  -0.253079423
         10  -0.250000000   0.000000000  -0.253079423
         11   0.125000000   0.216506351  -0.253079423
         12  -0.125000000  -0.216506351   0.253079423

     Calculation of q =    0.1250000   0.5051815   0.0843598
     [opt_tetra]  Optimized tetrahedron method is used.
 
     Parallelization info
     --------------------
     sticks:   dense  smooth     PW     G-vecs:    dense   smooth      PW
     Min          52      52     16                 2048     2048     362
     Max          54      54     18                 2051     2051     365
     Sum        1045    1045    337                40967    40967    7269
 
     Using Slab Decomposition
 

     Title: 
      Electron-phonon for Th2H18                                                


     bravais-lattice index     =            4
     lattice parameter (alat)  =       6.9107  a.u.
     unit-cell volume          =     423.5189 (a.u.)^3
     number of atoms/cell      =           20
     number of atomic types    =            2
     number of electrons       =        26.00
     number of Kohn-Sham states=           17
     kinetic-energy cutoff     =      80.0000  Ry
     charge density cutoff     =     320.0000  Ry
     Exchange-correlation= PZ
                           (   1   1   0   0   0   0   0)

     celldm(1)=   6.910708  celldm(2)=   0.000000  celldm(3)=   1.481748
     celldm(4)=   0.000000  celldm(5)=   0.000000  celldm(6)=   0.000000

     crystal axes: (cart. coord. in units of alat)
               a(1) = (   1.000000   0.000000   0.000000 )  
               a(2) = (  -0.500000   0.866025   0.000000 )  
               a(3) = (   0.000000   0.000000   1.481748 )  

     reciprocal axes: (cart. coord. in units 2 pi/alat)
               b(1) = (  1.000000  0.577350  0.000000 )  
               b(2) = (  0.000000  1.154701  0.000000 )  
               b(3) = (  0.000000  0.000000  0.674878 )  


     PseudoPot. # 1 for H  read from file:
     ./H.UPF
     MD5 check sum: df8e43189db5a2d7f03d0dd74d71ce72
     Pseudo is Norm-conserving, Zval =  1.0
     Generated in analytical, separable form
     Using radial grid of  929 points,  0 beta functions with: 

     PseudoPot. # 2 for Th read from file:
     ./Th.UPF
     MD5 check sum: a439cebac19eeec3fe133fa10c950477
     Pseudo is Norm-conserving + core correction, Zval =  4.0
     Generated using "atomic" code by A. Dal Corso  v.5.0.99 svn rev. 10869
     Using radial grid of 1289 points,  3 beta functions with: 
                l(1) =   1
                l(2) =   2
                l(3) =   3

     atomic species   valence    mass     pseudopotential
        H              1.00     1.00794     H ( 1.00)
        Th             4.00   232.03806     Th( 1.00)

     24 Sym. Ops., with inversion, found



   Cartesian axes

     site n.     atom                  positions (alat units)
         1           Th  tau(   1) = (   0.5000000   0.2886751   1.1113112  )
         2           Th  tau(   2) = (   0.0000000   0.5773503   0.3704371  )
         3           H   tau(   3) = (   0.0000000   0.0000000   0.3704371  )
         4           H   tau(   4) = (   0.0000000   0.0000000   1.1113112  )
         5           H   tau(   5) = (   0.5000000   0.2886751   0.2298328  )
         6           H   tau(   6) = (   0.0000000   0.5773503   0.9707069  )
         7           H   tau(   7) = (  -0.0000000   0.5773503   1.2519155  )
         8           H   tau(   8) = (   0.5000000   0.2886751   0.5110414  )
         9           H   tau(   9) = (   0.5000000   0.6095530   0.0932611  )
        10           H   tau(  10) = (   0.2221116   0.1282362   0.0932611  )
        11           H   tau(  11) = (   0.7778884   0.1282362   0.0932611  )
        12           H   tau(  12) = (   0.0000000   0.2564724   0.8341353  )
        13           H   tau(  13) = (   0.2778884   0.7377892   0.8341353  )
        14           H   tau(  14) = (  -0.2778884   0.7377892   0.8341353  )
        15           H   tau(  15) = (   0.2778884   0.7377892   1.3884871  )
        16           H   tau(  16) = (  -0.0000000   0.2564724   1.3884871  )
        17           H   tau(  17) = (  -0.2778884   0.7377892   1.3884871  )
        18           H   tau(  18) = (   0.2221116   0.1282362   0.6476130  )
        19           H   tau(  19) = (   0.5000000   0.6095530   0.6476130  )
        20           H   tau(  20) = (   0.7778884   0.1282362   0.6476130  )

     number of k points=  3456 (tetrahedron method)

     Number of k-points >= 100: set verbosity='high' to print them.

     Dense  grid:    40967 G-vectors     FFT dimensions: (  40,  40,  60)

     Estimated max dynamical RAM per process >       2.80 MB

     Estimated total dynamical RAM >      56.01 MB

     The potential is recalculated from file :
     ./_ph0/Th2H18.q_3/Th2H18.save/charge-density

     Starting wfcs are   50 atomic wfcs

     Band Structure Calculation
     Davidson diagonalization with overlap
     c_bands:  1 eigenvalues not converged
     c_bands:  1 eigenvalues not converged
     c_bands:  1 eigenvalues not converged
     c_bands:  1 eigenvalues not converged
     c_bands:  1 eigenvalues not converged
     c_bands:  1 eigenvalues not converged
     c_bands:  1 eigenvalues not converged
     c_bands:  1 eigenvalues not converged
     c_bands:  1 eigenvalues not converged
     c_bands:  1 eigenvalues not converged
     c_bands:  1 eigenvalues not converged
     c_bands:  1 eigenvalues not converged
     c_bands:  1 eigenvalues not converged
     c_bands:  1 eigenvalues not converged
     c_bands:  1 eigenvalues not converged
     c_bands:  1 eigenvalues not converged
     c_bands:  1 eigenvalues not converged
     c_bands:  1 eigenvalues not converged
     c_bands:  1 eigenvalues not converged
     c_bands:  1 eigenvalues not converged
     c_bands:  1 eigenvalues not converged
     c_bands:  1 eigenvalues not converged
     c_bands:  1 eigenvalues not converged
     c_bands:  1 eigenvalues not converged
     c_bands:  1 eigenvalues not converged
     c_bands:  1 eigenvalues not converged
     c_bands:  1 eigenvalues not converged
     c_bands:  1 eigenvalues not converged
     c_bands:  1 eigenvalues not converged
     c_bands:  1 eigenvalues not converged
     c_bands:  1 eigenvalues not converged
     c_bands:  1 eigenvalues not converged
     c_bands:  1 eigenvalues not converged
     c_bands:  1 eigenvalues not converged
     c_bands:  1 eigenvalues not converged
     c_bands:  1 eigenvalues not converged
     c_bands:  1 eigenvalues not converged
     c_bands:  1 eigenvalues not converged
     c_bands:  1 eigenvalues not converged
     c_bands:  1 eigenvalues not converged
     c_bands:  1 eigenvalues not converged
     c_bands:  1 eigenvalues not converged
     c_bands:  1 eigenvalues not converged
     c_bands:  1 eigenvalues not converged
     c_bands:  1 eigenvalues not converged
     c_bands:  1 eigenvalues not converged
     c_bands:  1 eigenvalues not converged
     c_bands:  1 eigenvalues not converged
     c_bands:  1 eigenvalues not converged
     c_bands:  1 eigenvalues not converged
     c_bands:  1 eigenvalues not converged
     c_bands:  1 eigenvalues not converged
     c_bands:  1 eigenvalues not converged
     c_bands:  1 eigenvalues not converged
     c_bands:  1 eigenvalues not converged
     c_bands:  1 eigenvalues not converged
     c_bands:  1 eigenvalues not converged
     c_bands:  1 eigenvalues not converged
     c_bands:  1 eigenvalues not converged
     c_bands:  1 eigenvalues not converged
     c_bands:  1 eigenvalues not converged
     c_bands:  1 eigenvalues not converged
     c_bands:  1 eigenvalues not converged
     c_bands:  1 eigenvalues not converged
     c_bands:  1 eigenvalues not converged
     c_bands:  1 eigenvalues not converged
     c_bands:  1 eigenvalues not converged
     c_bands:  1 eigenvalues not converged
     c_bands:  1 eigenvalues not converged
     c_bands:  1 eigenvalues not converged
     c_bands:  1 eigenvalues not converged
     c_bands:  1 eigenvalues not converged
     c_bands:  1 eigenvalues not converged
     c_bands:  1 eigenvalues not converged
     c_bands:  1 eigenvalues not converged
     c_bands:  1 eigenvalues not converged
     c_bands:  1 eigenvalues not converged
     c_bands:  1 eigenvalues not converged
     c_bands:  1 eigenvalues not converged
     c_bands:  1 eigenvalues not converged
     c_bands:  1 eigenvalues not converged
     c_bands:  1 eigenvalues not converged
     c_bands:  1 eigenvalues not converged
     c_bands:  1 eigenvalues not converged
     c_bands:  1 eigenvalues not converged
     c_bands:  1 eigenvalues not converged
     c_bands:  1 eigenvalues not converged
     c_bands:  1 eigenvalues not converged
     c_bands:  1 eigenvalues not converged
     c_bands:  1 eigenvalues not converged
     c_bands:  1 eigenvalues not converged
     c_bands:  1 eigenvalues not converged
     c_bands:  1 eigenvalues not converged
     c_bands:  1 eigenvalues not converged
     c_bands:  1 eigenvalues not converged
     c_bands:  1 eigenvalues not converged
     c_bands:  1 eigenvalues not converged
     c_bands:  1 eigenvalues not converged
     c_bands:  1 eigenvalues not converged
     c_bands:  1 eigenvalues not converged
     c_bands:  1 eigenvalues not converged
     c_bands:  1 eigenvalues not converged
     c_bands:  1 eigenvalues not converged
     c_bands:  1 eigenvalues not converged
     c_bands:  1 eigenvalues not converged
     c_bands:  1 eigenvalues not converged
     c_bands:  1 eigenvalues not converged
     c_bands:  1 eigenvalues not converged
     c_bands:  1 eigenvalues not converged
     c_bands:  1 eigenvalues not converged
     c_bands:  1 eigenvalues not converged
     c_bands:  1 eigenvalues not converged
     c_bands:  1 eigenvalues not converged
     c_bands:  1 eigenvalues not converged
     c_bands:  1 eigenvalues not converged
     c_bands:  1 eigenvalues not converged
     c_bands:  1 eigenvalues not converged
     c_bands:  1 eigenvalues not converged
     c_bands:  1 eigenvalues not converged
     c_bands:  1 eigenvalues not converged
     c_bands:  1 eigenvalues not converged
     c_bands:  1 eigenvalues not converged
     c_bands:  1 eigenvalues not converged
     c_bands:  1 eigenvalues not converged
     c_bands:  1 eigenvalues not converged
     c_bands:  1 eigenvalues not converged
     c_bands:  1 eigenvalues not converged
     c_bands:  1 eigenvalues not converged
     c_bands:  1 eigenvalues not converged
     c_bands:  1 eigenvalues not converged
     c_bands:  1 eigenvalues not converged
     c_bands:  1 eigenvalues not converged
     c_bands:  1 eigenvalues not converged
     c_bands:  1 eigenvalues not converged
     c_bands:  1 eigenvalues not converged
     c_bands:  1 eigenvalues not converged
     c_bands:  1 eigenvalues not converged
     c_bands:  1 eigenvalues not converged
     c_bands:  1 eigenvalues not converged
     c_bands:  1 eigenvalues not converged
     c_bands:  1 eigenvalues not converged
     c_bands:  1 eigenvalues not converged
     c_bands:  1 eigenvalues not converged
     c_bands:  1 eigenvalues not converged
     c_bands:  1 eigenvalues not converged
     c_bands:  1 eigenvalues not converged
     c_bands:  1 eigenvalues not converged
     c_bands:  1 eigenvalues not converged
     c_bands:  1 eigenvalues not converged
     c_bands:  1 eigenvalues not converged
     c_bands:  1 eigenvalues not converged
     c_bands:  1 eigenvalues not converged
     c_bands:  1 eigenvalues not converged
     c_bands:  1 eigenvalues not converged
     c_bands:  1 eigenvalues not converged
     c_bands:  1 eigenvalues not converged
     c_bands:  1 eigenvalues not converged
     c_bands:  1 eigenvalues not converged
     c_bands:  1 eigenvalues not converged
     c_bands:  1 eigenvalues not converged
     c_bands:  1 eigenvalues not converged
     c_bands:  1 eigenvalues not converged
     c_bands:  1 eigenvalues not converged
     c_bands:  1 eigenvalues not converged
     c_bands:  1 eigenvalues not converged
     c_bands:  1 eigenvalues not converged
     c_bands:  1 eigenvalues not converged
     c_bands:  1 eigenvalues not converged
     c_bands:  1 eigenvalues not converged
     c_bands:  1 eigenvalues not converged
     c_bands:  1 eigenvalues not converged
     c_bands:  1 eigenvalues not converged
     c_bands:  1 eigenvalues not converged
     c_bands:  1 eigenvalues not converged
     c_bands:  1 eigenvalues not converged
     c_bands:  1 eigenvalues not converged
     c_bands:  1 eigenvalues not converged
     c_bands:  1 eigenvalues not converged
     c_bands:  1 eigenvalues not converged
     c_bands:  1 eigenvalues not converged
     c_bands:  1 eigenvalues not converged
     c_bands:  1 eigenvalues not converged
     c_bands:  1 eigenvalues not converged
     c_bands:  1 eigenvalues not converged
     c_bands:  1 eigenvalues not converged
     c_bands:  1 eigenvalues not converged
     c_bands:  1 eigenvalues not converged
     c_bands:  1 eigenvalues not converged
     c_bands:  1 eigenvalues not converged
     c_bands:  1 eigenvalues not converged
     c_bands:  1 eigenvalues not converged
     c_bands:  1 eigenvalues not converged
     c_bands:  1 eigenvalues not converged
     c_bands:  1 eigenvalues not converged
     c_bands:  1 eigenvalues not converged
     c_bands:  1 eigenvalues not converged
     c_bands:  1 eigenvalues not converged
     c_bands:  1 eigenvalues not converged
     c_bands:  1 eigenvalues not converged
     c_bands:  1 eigenvalues not converged
     c_bands:  1 eigenvalues not converged
     c_bands:  1 eigenvalues not converged
     c_bands:  1 eigenvalues not converged
     c_bands:  1 eigenvalues not converged
     c_bands:  1 eigenvalues not converged
     c_bands:  1 eigenvalues not converged
     c_bands:  1 eigenvalues not converged
     c_bands:  1 eigenvalues not converged
     c_bands:  1 eigenvalues not converged
     c_bands:  1 eigenvalues not converged
     c_bands:  1 eigenvalues not converged
     c_bands:  1 eigenvalues not converged
     c_bands:  1 eigenvalues not converged
     c_bands:  1 eigenvalues not converged
     c_bands:  1 eigenvalues not converged
     c_bands:  1 eigenvalues not converged
     c_bands:  1 eigenvalues not converged
     c_bands:  1 eigenvalues not converged
     c_bands:  1 eigenvalues not converged
     c_bands:  1 eigenvalues not converged
     c_bands:  1 eigenvalues not converged
     c_bands:  1 eigenvalues not converged
     c_bands:  1 eigenvalues not converged
     c_bands:  1 eigenvalues not converged
     c_bands:  1 eigenvalues not converged
     c_bands:  1 eigenvalues not converged

     ethr =  3.85E-11,  avg # of iterations = 70.8

     total cpu time spent up to now is     1331.7 secs

     End of band structure calculation

     Number of k-points >= 100: set verbosity='high' to print the bands.

     the Fermi energy is    13.0732 ev

     Writing config to output data dir ./_ph0/Th2H18.q_3/Th2H18.save/
 
     [dfpt_tetra]  Dos(E_F)[/Ry] :   0.1466007E+02

      Electron-phonon for Th2H18                                                

     bravais-lattice index     =            4
     lattice parameter (alat)  =       6.9107  a.u.
     unit-cell volume          =     423.5189 (a.u.)^3
     number of atoms/cell      =           20
     number of atomic types    =            2
     kinetic-energy cut-off    =      80.0000  Ry
     charge density cut-off    =     320.0000  Ry
     convergence threshold     =      1.0E-08
     beta                      =       0.7000
     number of iterations used =            4
     Exchange-correlation= PZ
                           (   1   1   0   0   0   0   0)


     celldm(1)=    6.91071  celldm(2)=    0.00000  celldm(3)=    1.48175
     celldm(4)=    0.00000  celldm(5)=    0.00000  celldm(6)=    0.00000

     crystal axes: (cart. coord. in units of alat)
               a(1) = (  1.0000  0.0000  0.0000 )  
               a(2) = ( -0.5000  0.8660  0.0000 )  
               a(3) = (  0.0000  0.0000  1.4817 )  

     reciprocal axes: (cart. coord. in units 2 pi/alat)
               b(1) = (  1.0000  0.5774  0.0000 )  
               b(2) = (  0.0000  1.1547  0.0000 )  
               b(3) = (  0.0000  0.0000  0.6749 )  


     Atoms inside the unit cell: 

     Cartesian axes

     site n.  atom      mass           positions (alat units)
        1     Th 232.0381   tau(    1) = (    0.50000    0.28868    1.11131  )
        2     Th 232.0381   tau(    2) = (    0.00000    0.57735    0.37044  )
        3     H    1.0079   tau(    3) = (    0.00000    0.00000    0.37044  )
        4     H    1.0079   tau(    4) = (    0.00000    0.00000    1.11131  )
        5     H    1.0079   tau(    5) = (    0.50000    0.28868    0.22983  )
        6     H    1.0079   tau(    6) = (    0.00000    0.57735    0.97071  )
        7     H    1.0079   tau(    7) = (   -0.00000    0.57735    1.25192  )
        8     H    1.0079   tau(    8) = (    0.50000    0.28868    0.51104  )
        9     H    1.0079   tau(    9) = (    0.50000    0.60955    0.09326  )
       10     H    1.0079   tau(   10) = (    0.22211    0.12824    0.09326  )
       11     H    1.0079   tau(   11) = (    0.77789    0.12824    0.09326  )
       12     H    1.0079   tau(   12) = (    0.00000    0.25647    0.83414  )
       13     H    1.0079   tau(   13) = (    0.27789    0.73779    0.83414  )
       14     H    1.0079   tau(   14) = (   -0.27789    0.73779    0.83414  )
       15     H    1.0079   tau(   15) = (    0.27789    0.73779    1.38849  )
       16     H    1.0079   tau(   16) = (   -0.00000    0.25647    1.38849  )
       17     H    1.0079   tau(   17) = (   -0.27789    0.73779    1.38849  )
       18     H    1.0079   tau(   18) = (    0.22211    0.12824    0.64761  )
       19     H    1.0079   tau(   19) = (    0.50000    0.60955    0.64761  )
       20     H    1.0079   tau(   20) = (    0.77789    0.12824    0.64761  )

     Computing dynamical matrix for 
                    q = (   0.1250000   0.5051815   0.0843598 )
 
     No symmetry!

     G cutoff =  387.1109  (   2051 G-vectors)     FFT grid: ( 40, 40, 60)
     number of k points=  3456

     PseudoPot. # 1 for H  read from file:
     ./H.UPF
     MD5 check sum: df8e43189db5a2d7f03d0dd74d71ce72
     Pseudo is Norm-conserving, Zval =  1.0
     Generated in analytical, separable form
     Using radial grid of  929 points,  0 beta functions with: 

     PseudoPot. # 2 for Th read from file:
     ./Th.UPF
     MD5 check sum: a439cebac19eeec3fe133fa10c950477
     Pseudo is Norm-conserving + core correction, Zval =  4.0
     Generated using "atomic" code by A. Dal Corso  v.5.0.99 svn rev. 10869
     Using radial grid of 1289 points,  3 beta functions with: 
                l(1) =   1
                l(2) =   2
                l(3) =   3

     Mode symmetry, C_1 (1)     point group:


     Atomic displacements:
     There are   60 irreducible representations

     Representation     1      1 modes -  To be done

     Representation     2      1 modes -  To be done

     Representation     3      1 modes -  To be done

     Representation     4      1 modes -  To be done

     Representation     5      1 modes -  To be done

     Representation     6      1 modes -  To be done

     Representation     7      1 modes -  To be done

     Representation     8      1 modes -  To be done

     Representation     9      1 modes -  To be done

     Representation    10      1 modes -  To be done

     Representation    11      1 modes -  To be done

     Representation    12      1 modes -  To be done

     Representation    13      1 modes -  To be done

     Representation    14      1 modes -  To be done

     Representation    15      1 modes -  To be done

     Representation    16      1 modes -  To be done

     Representation    17      1 modes -  To be done

     Representation    18      1 modes -  To be done

     Representation    19      1 modes -  To be done

     Representation    20      1 modes -  To be done

     Representation    21      1 modes -  To be done

     Representation    22      1 modes -  To be done

     Representation    23      1 modes -  To be done

     Representation    24      1 modes -  To be done

     Representation    25      1 modes -  To be done

     Representation    26      1 modes -  To be done

     Representation    27      1 modes -  To be done

     Representation    28      1 modes -  To be done

     Representation    29      1 modes -  To be done

     Representation    30      1 modes -  To be done

     Representation    31      1 modes -  To be done

     Representation    32      1 modes -  To be done

     Representation    33      1 modes -  To be done

     Representation    34      1 modes -  To be done

     Representation    35      1 modes -  To be done

     Representation    36      1 modes -  To be done

     Representation    37      1 modes -  To be done

     Representation    38      1 modes -  To be done

     Representation    39      1 modes -  To be done

     Representation    40      1 modes -  To be done

     Representation    41      1 modes -  To be done

     Representation    42      1 modes -  To be done

     Representation    43      1 modes -  To be done

     Representation    44      1 modes -  To be done

     Representation    45      1 modes -  To be done

     Representation    46      1 modes -  To be done

     Representation    47      1 modes -  To be done

     Representation    48      1 modes -  To be done

     Representation    49      1 modes -  To be done

     Representation    50      1 modes -  To be done

     Representation    51      1 modes -  To be done

     Representation    52      1 modes -  To be done

     Representation    53      1 modes -  To be done

     Representation    54      1 modes -  To be done

     Representation    55      1 modes -  To be done

     Representation    56      1 modes -  To be done

     Representation    57      1 modes -  To be done

     Representation    58      1 modes -  To be done

     Representation    59      1 modes -  To be done

     Representation    60      1 modes -  To be done


     PHONON       :  26m44.26s CPU  28m41.10s WALL

     Reading dVscf from file dv
     Reading dynamics matrix from file Th2H18.dyn3

     Diagonalizing the dynamical matrix

     q = (    0.125000000   0.505181486   0.084359808 ) 

 **************************************************************************
     freq (    1) =     -41.206686 [THz] =   -1374.507104 [cm-1]
     freq (    2) =     -12.778869 [THz] =    -426.257204 [cm-1]
     freq (    3) =       4.595831 [THz] =     153.300437 [cm-1]
     freq (    4) =       4.807749 [THz] =     160.369233 [cm-1]
     freq (    5) =       4.872338 [THz] =     162.523687 [cm-1]
     freq (    6) =       5.078191 [THz] =     169.390221 [cm-1]
     freq (    7) =       6.202118 [THz] =     206.880390 [cm-1]
     freq (    8) =       6.830719 [THz] =     227.848263 [cm-1]
     freq (    9) =      23.087802 [THz] =     770.126194 [cm-1]
     freq (   10) =      25.574266 [THz] =     853.065704 [cm-1]
     freq (   11) =      28.523173 [THz] =     951.430649 [cm-1]
     freq (   12) =      29.026855 [THz] =     968.231678 [cm-1]
     freq (   13) =      30.152370 [THz] =    1005.774816 [cm-1]
     freq (   14) =      30.277448 [THz] =    1009.946964 [cm-1]
     freq (   15) =      30.961601 [THz] =    1032.767833 [cm-1]
     freq (   16) =      31.255116 [THz] =    1042.558454 [cm-1]
     freq (   17) =      31.884231 [THz] =    1063.543451 [cm-1]
     freq (   18) =      32.404637 [THz] =    1080.902343 [cm-1]
     freq (   19) =      34.259652 [THz] =    1142.778996 [cm-1]
     freq (   20) =      34.956265 [THz] =    1166.015476 [cm-1]
     freq (   21) =      35.671901 [THz] =    1189.886536 [cm-1]
     freq (   22) =      35.950703 [THz] =    1199.186364 [cm-1]
     freq (   23) =      39.052338 [THz] =    1302.645794 [cm-1]
     freq (   24) =      39.279493 [THz] =    1310.222860 [cm-1]
     freq (   25) =      39.931785 [THz] =    1331.980961 [cm-1]
     freq (   26) =      40.511379 [THz] =    1351.314133 [cm-1]
     freq (   27) =      41.003868 [THz] =    1367.741806 [cm-1]
     freq (   28) =      42.733847 [THz] =    1425.447693 [cm-1]
     freq (   29) =      42.989249 [THz] =    1433.966994 [cm-1]
     freq (   30) =      43.594024 [THz] =    1454.140117 [cm-1]
     freq (   31) =      44.020321 [THz] =    1468.359850 [cm-1]
     freq (   32) =      44.344064 [THz] =    1479.158749 [cm-1]
     freq (   33) =      44.505837 [THz] =    1484.554929 [cm-1]
     freq (   34) =      44.802449 [THz] =    1494.448823 [cm-1]
     freq (   35) =      44.865361 [THz] =    1496.547344 [cm-1]
     freq (   36) =      45.283813 [THz] =    1510.505408 [cm-1]
     freq (   37) =      45.584424 [THz] =    1520.532716 [cm-1]
     freq (   38) =      45.906621 [THz] =    1531.280061 [cm-1]
     freq (   39) =      46.270715 [THz] =    1543.424924 [cm-1]
     freq (   40) =      46.676805 [THz] =    1556.970622 [cm-1]
     freq (   41) =      47.410892 [THz] =    1581.457118 [cm-1]
     freq (   42) =      47.524684 [THz] =    1585.252833 [cm-1]
     freq (   43) =      48.021167 [THz] =    1601.813699 [cm-1]
     freq (   44) =      48.708989 [THz] =    1624.756996 [cm-1]
     freq (   45) =      49.023129 [THz] =    1635.235554 [cm-1]
     freq (   46) =      49.328620 [THz] =    1645.425639 [cm-1]
     freq (   47) =      50.334371 [THz] =    1678.973898 [cm-1]
     freq (   48) =      50.436920 [THz] =    1682.394574 [cm-1]
     freq (   49) =      50.578501 [THz] =    1687.117192 [cm-1]
     freq (   50) =      50.648644 [THz] =    1689.456908 [cm-1]
     freq (   51) =      51.544419 [THz] =    1719.336762 [cm-1]
     freq (   52) =      52.327125 [THz] =    1745.444999 [cm-1]
     freq (   53) =      52.515372 [THz] =    1751.724270 [cm-1]
     freq (   54) =      54.098045 [THz] =    1804.516550 [cm-1]
     freq (   55) =      54.275985 [THz] =    1810.451987 [cm-1]
     freq (   56) =      55.696968 [THz] =    1857.850877 [cm-1]
     freq (   57) =      56.034017 [THz] =    1869.093605 [cm-1]
[...]
     c_bands:  1 eigenvalues not converged
     c_bands:  1 eigenvalues not converged
     c_bands:  1 eigenvalues not converged
     c_bands:  1 eigenvalues not converged
     c_bands:  1 eigenvalues not converged
     c_bands:  1 eigenvalues not converged
     c_bands:  1 eigenvalues not converged
     c_bands:  1 eigenvalues not converged
     c_bands:  1 eigenvalues not converged
     c_bands:  1 eigenvalues not converged
     c_bands:  1 eigenvalues not converged
     c_bands:  1 eigenvalues not converged
     c_bands:  1 eigenvalues not converged
     c_bands:  1 eigenvalues not converged

     ethr =  3.85E-11,  avg # of iterations = 69.5

     total cpu time spent up to now is     5103.4 secs

     End of band structure calculation

     Number of k-points >= 100: set verbosity='high' to print the bands.

     the Fermi energy is    13.0732 ev

     Writing config to output data dir ./_ph0/Th2H18.q_12/Th2H18.save/
 
     [dfpt_tetra]  Dos(E_F)[/Ry] :   0.1466007E+02

      Electron-phonon for Th2H18                                                

     bravais-lattice index     =            4
     lattice parameter (alat)  =       6.9107  a.u.
     unit-cell volume          =     423.5189 (a.u.)^3
     number of atoms/cell      =           20
     number of atomic types    =            2
     kinetic-energy cut-off    =      80.0000  Ry
     charge density cut-off    =     320.0000  Ry
     convergence threshold     =      1.0E-08
     beta                      =       0.7000
     number of iterations used =            4
     Exchange-correlation= PZ
                           (   1   1   0   0   0   0   0)


     celldm(1)=    6.91071  celldm(2)=    0.00000  celldm(3)=    1.48175
     celldm(4)=    0.00000  celldm(5)=    0.00000  celldm(6)=    0.00000

     crystal axes: (cart. coord. in units of alat)
               a(1) = (  1.0000  0.0000  0.0000 )  
               a(2) = ( -0.5000  0.8660  0.0000 )  
               a(3) = (  0.0000  0.0000  1.4817 )  

     reciprocal axes: (cart. coord. in units 2 pi/alat)
               b(1) = (  1.0000  0.5774  0.0000 )  
               b(2) = (  0.0000  1.1547  0.0000 )  
               b(3) = (  0.0000  0.0000  0.6749 )  


     Atoms inside the unit cell: 

     Cartesian axes

     site n.  atom      mass           positions (alat units)
        1     Th 232.0381   tau(    1) = (    0.50000    0.28868    1.11131  )
        2     Th 232.0381   tau(    2) = (    0.00000    0.57735    0.37044  )
        3     H    1.0079   tau(    3) = (    0.00000    0.00000    0.37044  )
        4     H    1.0079   tau(    4) = (    0.00000    0.00000    1.11131  )
        5     H    1.0079   tau(    5) = (    0.50000    0.28868    0.22983  )
        6     H    1.0079   tau(    6) = (    0.00000    0.57735    0.97071  )
        7     H    1.0079   tau(    7) = (   -0.00000    0.57735    1.25192  )
        8     H    1.0079   tau(    8) = (    0.50000    0.28868    0.51104  )
        9     H    1.0079   tau(    9) = (    0.50000    0.60955    0.09326  )
       10     H    1.0079   tau(   10) = (    0.22211    0.12824    0.09326  )
       11     H    1.0079   tau(   11) = (    0.77789    0.12824    0.09326  )
       12     H    1.0079   tau(   12) = (    0.00000    0.25647    0.83414  )
       13     H    1.0079   tau(   13) = (    0.27789    0.73779    0.83414  )
       14     H    1.0079   tau(   14) = (   -0.27789    0.73779    0.83414  )
       15     H    1.0079   tau(   15) = (    0.27789    0.73779    1.38849  )
       16     H    1.0079   tau(   16) = (   -0.00000    0.25647    1.38849  )
       17     H    1.0079   tau(   17) = (   -0.27789    0.73779    1.38849  )
       18     H    1.0079   tau(   18) = (    0.22211    0.12824    0.64761  )
       19     H    1.0079   tau(   19) = (    0.50000    0.60955    0.64761  )
       20     H    1.0079   tau(   20) = (    0.77789    0.12824    0.64761  )

     Computing dynamical matrix for 
                    q = (   0.3750000  -0.2165064   0.2530794 )
 
      2 Sym.Ops. (no q -> -q+G )


     G cutoff =  387.1109  (   2051 G-vectors)     FFT grid: ( 40, 40, 60)
     number of k points=  1872

     PseudoPot. # 1 for H  read from file:
     ./H.UPF
     MD5 check sum: df8e43189db5a2d7f03d0dd74d71ce72
     Pseudo is Norm-conserving, Zval =  1.0
     Generated in analytical, separable form
     Using radial grid of  929 points,  0 beta functions with: 

     PseudoPot. # 2 for Th read from file:
     ./Th.UPF
     MD5 check sum: a439cebac19eeec3fe133fa10c950477
     Pseudo is Norm-conserving + core correction, Zval =  4.0
     Generated using "atomic" code by A. Dal Corso  v.5.0.99 svn rev. 10869
     Using radial grid of 1289 points,  3 beta functions with: 
                l(1) =   1
                l(2) =   2
                l(3) =   3

     Mode symmetry, C_s (m)     point group:


     Atomic displacements:
     There are   60 irreducible representations

     Representation     1      1 modes -  To be done

     Representation     2      1 modes -  To be done

     Representation     3      1 modes -  To be done

     Representation     4      1 modes -  To be done

     Representation     5      1 modes -  To be done

     Representation     6      1 modes -  To be done

     Representation     7      1 modes -  To be done

     Representation     8      1 modes -  To be done

     Representation     9      1 modes -  To be done

     Representation    10      1 modes -  To be done

     Representation    11      1 modes -  To be done

     Representation    12      1 modes -  To be done

     Representation    13      1 modes -  To be done

     Representation    14      1 modes -  To be done

     Representation    15      1 modes -  To be done

     Representation    16      1 modes -  To be done

     Representation    17      1 modes -  To be done

     Representation    18      1 modes -  To be done

     Representation    19      1 modes -  To be done

     Representation    20      1 modes -  To be done

     Representation    21      1 modes -  To be done

     Representation    22      1 modes -  To be done

     Representation    23      1 modes -  To be done

     Representation    24      1 modes -  To be done

     Representation    25      1 modes -  To be done

     Representation    26      1 modes -  To be done

     Representation    27      1 modes -  To be done

     Representation    28      1 modes -  To be done

     Representation    29      1 modes -  To be done

     Representation    30      1 modes -  To be done

     Representation    31      1 modes -  To be done

     Representation    32      1 modes -  To be done

     Representation    33      1 modes -  To be done

     Representation    34      1 modes -  To be done

     Representation    35      1 modes -  To be done

     Representation    36      1 modes -  To be done

     Representation    37      1 modes -  To be done

     Representation    38      1 modes -  To be done

     Representation    39      1 modes -  To be done

     Representation    40      1 modes -  To be done

     Representation    41      1 modes -  To be done

     Representation    42      1 modes -  To be done

     Representation    43      1 modes -  To be done

     Representation    44      1 modes -  To be done

     Representation    45      1 modes -  To be done

     Representation    46      1 modes -  To be done

     Representation    47      1 modes -  To be done

     Representation    48      1 modes -  To be done

     Representation    49      1 modes -  To be done

     Representation    50      1 modes -  To be done

     Representation    51      1 modes -  To be done

     Representation    52      1 modes -  To be done

     Representation    53      1 modes -  To be done

     Representation    54      1 modes -  To be done

     Representation    55      1 modes -  To be done

     Representation    56      1 modes -  To be done

     Representation    57      1 modes -  To be done

     Representation    58      1 modes -  To be done

     Representation    59      1 modes -  To be done

     Representation    60      1 modes -  To be done


     PHONON       :      2h 2m CPU      2h10m WALL

     Reading dVscf from file dv
     Reading dynamics matrix from file Th2H18.dyn12

     Diagonalizing the dynamical matrix

     q = (    0.375000000  -0.216506351   0.253079423 ) 

 **************************************************************************
     freq (    1) =     -20.919261 [THz] =    -697.791421 [cm-1]
     freq (    2) =      -3.770450 [THz] =    -125.768660 [cm-1]
     freq (    3) =       3.783210 [THz] =     126.194309 [cm-1]
     freq (    4) =       4.472345 [THz] =     149.181373 [cm-1]
     freq (    5) =       4.745059 [THz] =     158.278142 [cm-1]
     freq (    6) =       6.233574 [THz] =     207.929657 [cm-1]
     freq (    7) =       6.754612 [THz] =     225.309591 [cm-1]
     freq (    8) =      11.015712 [THz] =     367.444607 [cm-1]
     freq (    9) =      14.960743 [THz] =     499.036686 [cm-1]
     freq (   10) =      21.458931 [THz] =     715.792899 [cm-1]
     freq (   11) =      22.785151 [THz] =     760.030819 [cm-1]
     freq (   12) =      24.505561 [THz] =     817.417519 [cm-1]
     freq (   13) =      25.224122 [THz] =     841.386135 [cm-1]
     freq (   14) =      27.722017 [THz] =     924.706957 [cm-1]
     freq (   15) =      29.782833 [THz] =     993.448376 [cm-1]
     freq (   16) =      31.100344 [THz] =    1037.395800 [cm-1]
     freq (   17) =      31.636894 [THz] =    1055.293190 [cm-1]
     freq (   18) =      32.711837 [THz] =    1091.149434 [cm-1]
     freq (   19) =      32.941624 [THz] =    1098.814289 [cm-1]
     freq (   20) =      35.007107 [THz] =    1167.711405 [cm-1]
     freq (   21) =      35.297816 [THz] =    1177.408391 [cm-1]
     freq (   22) =      35.590335 [THz] =    1187.165784 [cm-1]
     freq (   23) =      36.438601 [THz] =    1215.460904 [cm-1]
     freq (   24) =      36.446355 [THz] =    1215.719553 [cm-1]
     freq (   25) =      37.678111 [THz] =    1256.806496 [cm-1]
     freq (   26) =      38.867704 [THz] =    1296.487054 [cm-1]
     freq (   27) =      39.048271 [THz] =    1302.510105 [cm-1]
     freq (   28) =      39.916742 [THz] =    1331.479176 [cm-1]
     freq (   29) =      40.901373 [THz] =    1364.322933 [cm-1]
     freq (   30) =      42.895734 [THz] =    1430.847674 [cm-1]
     freq (   31) =      43.303009 [THz] =    1444.432886 [cm-1]
     freq (   32) =      43.754051 [THz] =    1459.478047 [cm-1]
     freq (   33) =      44.235163 [THz] =    1475.526207 [cm-1]
     freq (   34) =      44.239147 [THz] =    1475.659113 [cm-1]
     freq (   35) =      44.584489 [THz] =    1487.178471 [cm-1]
     freq (   36) =      45.203409 [THz] =    1507.823421 [cm-1]
     freq (   37) =      45.386118 [THz] =    1513.917941 [cm-1]
     freq (   38) =      45.480998 [THz] =    1517.082797 [cm-1]
     freq (   39) =      45.645638 [THz] =    1522.574602 [cm-1]
     freq (   40) =      46.238874 [THz] =    1542.362831 [cm-1]
     freq (   41) =      46.699265 [THz] =    1557.719797 [cm-1]
     freq (   42) =      47.053318 [THz] =    1569.529752 [cm-1]
     freq (   43) =      47.524384 [THz] =    1585.242825 [cm-1]
     freq (   44) =      47.836383 [THz] =    1595.649996 [cm-1]
     freq (   45) =      48.625804 [THz] =    1621.982236 [cm-1]
     freq (   46) =      49.964771 [THz] =    1666.645371 [cm-1]
     freq (   47) =      50.266429 [THz] =    1676.707583 [cm-1]
     freq (   48) =      50.471035 [THz] =    1683.532499 [cm-1]
     freq (   49) =      50.700319 [THz] =    1691.180595 [cm-1]
     freq (   50) =      51.888529 [THz] =    1730.815039 [cm-1]
     freq (   51) =      52.226402 [THz] =    1742.085247 [cm-1]
     freq (   52) =      52.451477 [THz] =    1749.592957 [cm-1]
     freq (   53) =      52.722451 [THz] =    1758.631681 [cm-1]
     freq (   54) =      53.075388 [THz] =    1770.404379 [cm-1]
     freq (   55) =      53.521000 [THz] =    1785.268380 [cm-1]
     freq (   56) =      55.119425 [THz] =    1838.586096 [cm-1]
     freq (   57) =      56.661941 [THz] =    1890.038909 [cm-1]
     freq (   58) =      56.729132 [THz] =    1892.280152 [cm-1]
     freq (   59) =      61.435923 [THz] =    2049.281821 [cm-1]
     freq (   60) =      66.109143 [THz] =    2205.163663 [cm-1]
 **************************************************************************

     [elph_tetra]   Lowest band which contains FS :         13
     [elph_tetra]  Highest band which contains FS :         15
     [elph_tetra]    # of bands which contains FS :          3
 
     Tetrahedron method
     DOS =  7.330036 states/spin/Ry/Unit Cell at Ef= 13.073170 eV
     double delta at Ef =107.506883
     lambda(    1)=  0.0000   gamma=    0.00 GHz
     lambda(    2)=  0.0000   gamma=    0.00 GHz
     lambda(    3)=  0.0251   gamma=    2.52 GHz
     lambda(    4)=  0.0463   gamma=    6.48 GHz
     lambda(    5)=  0.0031   gamma=    0.49 GHz
     lambda(    6)=  0.0135   gamma=    3.66 GHz
     lambda(    7)=  0.0176   gamma=    5.62 GHz
     lambda(    8)=  0.0817   gamma=   69.42 GHz
     lambda(    9)=  0.1155   gamma=  180.98 GHz
     lambda(   10)=  0.0522   gamma=  168.21 GHz
     lambda(   11)=  0.0652   gamma=  236.77 GHz
     lambda(   12)=  0.0648   gamma=  272.42 GHz
     lambda(   13)=  0.0579   gamma=  258.02 GHz
     lambda(   14)=  0.0191   gamma=  102.63 GHz
     lambda(   15)=  0.0277   gamma=  172.12 GHz
     lambda(   16)=  0.0273   gamma=  184.93 GHz
     lambda(   17)=  0.0398   gamma=  278.79 GHz
     lambda(   18)=  0.0131   gamma=   98.18 GHz
     lambda(   19)=  0.0270   gamma=  204.78 GHz
     lambda(   20)=  0.0139   gamma=  119.45 GHz
     lambda(   21)=  0.0114   gamma=   99.05 GHz
     lambda(   22)=  0.0141   gamma=  125.16 GHz
     lambda(   23)=  0.0095   gamma=   88.54 GHz
     lambda(   24)=  0.0417   gamma=  387.76 GHz
     lambda(   25)=  0.0344   gamma=  341.55 GHz
     lambda(   26)=  0.0095   gamma=  100.18 GHz
     lambda(   27)=  0.0169   gamma=  180.16 GHz
     lambda(   28)=  0.0117   gamma=  130.25 GHz
     lambda(   29)=  0.0072   gamma=   83.78 GHz
     lambda(   30)=  0.0069   gamma=   89.05 GHz
     lambda(   31)=  0.0115   gamma=  151.08 GHz
     lambda(   32)=  0.0045   gamma=   60.79 GHz
     lambda(   33)=  0.0087   gamma=  119.38 GHz
     lambda(   34)=  0.0069   gamma=   95.13 GHz
     lambda(   35)=  0.0030   gamma=   41.34 GHz
     lambda(   36)=  0.0149   gamma=  212.55 GHz
     lambda(   37)=  0.0140   gamma=  202.54 GHz
     lambda(   38)=  0.0121   gamma=  174.67 GHz
     lambda(   39)=  0.0195   gamma=  284.70 GHz
     lambda(   40)=  0.0038   gamma=   56.22 GHz
     lambda(   41)=  0.0016   gamma=   25.02 GHz
     lambda(   42)=  0.0073   gamma=  113.32 GHz
     lambda(   43)=  0.0164   gamma=  259.78 GHz
     lambda(   44)=  0.0068   gamma=  108.21 GHz
     lambda(   45)=  0.0084   gamma=  139.65 GHz
     lambda(   46)=  0.0116   gamma=  202.05 GHz
     lambda(   47)=  0.0065   gamma=  115.61 GHz
     lambda(   48)=  0.0048   gamma=   85.70 GHz
     lambda(   49)=  0.0095   gamma=  170.10 GHz
     lambda(   50)=  0.0078   gamma=  147.06 GHz
     lambda(   51)=  0.0058   gamma=  110.07 GHz
     lambda(   52)=  0.0076   gamma=  146.54 GHz
     lambda(   53)=  0.0033   gamma=   64.40 GHz
     lambda(   54)=  0.0053   gamma=  104.58 GHz
     lambda(   55)=  0.0037   gamma=   74.18 GHz
     lambda(   56)=  0.0102   gamma=  216.23 GHz
     lambda(   57)=  0.0066   gamma=  148.24 GHz
     lambda(   58)=  0.0058   gamma=  131.09 GHz
     lambda(   59)=  0.0037   gamma=   97.61 GHz
     lambda(   60)=  0.0035   gamma=  107.45 GHz
 
     Number of q in the star =   12
     List of q in the star:
          1   0.375000000  -0.216506351   0.253079423
          2  -0.375000000  -0.216506351  -0.253079423
          3   0.375000000   0.216506351  -0.253079423
          4   0.375000000   0.216506351   0.253079423
          5   0.000000000  -0.433012702   0.253079423
          6   0.000000000   0.433012702   0.253079423
          7  -0.375000000  -0.216506351   0.253079423
          8   0.375000000  -0.216506351  -0.253079423
          9   0.000000000   0.433012702  -0.253079423
         10   0.000000000  -0.433012702  -0.253079423
         11  -0.375000000   0.216506351  -0.253079423
         12  -0.375000000   0.216506351   0.253079423
 
     init_run     :      1.06s CPU      1.15s WALL (      12 calls)
     electrons    :   4815.36s CPU   5098.23s WALL (      12 calls)

     Called by init_run:
     wfcinit      :      0.00s CPU      0.03s WALL (      12 calls)
     potinit      :      0.02s CPU      0.04s WALL (      12 calls)
     hinit0       :      0.33s CPU      0.33s WALL (      12 calls)

     Called by electrons:
     c_bands      :   4803.36s CPU   5086.16s WALL (      12 calls)
     v_of_rho     :      0.00s CPU      0.01s WALL (      13 calls)

     Called by c_bands:
     init_us_2    :    110.63s CPU    115.89s WALL (  907200 calls)
     init_us_2:cp :    108.48s CPU    113.95s WALL (  907200 calls)
     cegterg      :   4256.36s CPU   4384.67s WALL (  113464 calls)

     Called by *egterg:
     cdiaghg      :   1773.72s CPU   1815.96s WALL ( 2051151 calls)
     h_psi        :   2218.86s CPU   2305.02s WALL ( 2164615 calls)
     g_psi        :     15.23s CPU     15.59s WALL ( 2022351 calls)

     Called by h_psi:
     h_psi:calbec :    134.17s CPU    139.42s WALL ( 2164615 calls)
     vloc_psi     :   2010.29s CPU   2088.50s WALL ( 2164615 calls)
     add_vuspsi   :     48.01s CPU     50.20s WALL ( 2164615 calls)

     General routines
     calbec       :    131.99s CPU    137.77s WALL ( 2222215 calls)
     fft          :      0.01s CPU      0.05s WALL (      52 calls)
     ffts         :     85.21s CPU     93.74s WALL (  864000 calls)
     fftw         :   3714.19s CPU   3904.93s WALL (66479912 calls)
     davcio       :     48.08s CPU    197.42s WALL ( 1786453 calls)
 
     Parallel routines
 
     PHONON       :      2h 5m CPU      2h13m WALL

     INITIALIZATION: 
     phq_setup    :      1.56s CPU      2.03s WALL (      12 calls)
     phq_init     :      6.64s CPU      7.43s WALL (      12 calls)
 
     phq_init     :      6.64s CPU      7.43s WALL (      12 calls)
     set_drhoc    :      0.44s CPU      0.44s WALL (      12 calls)
     init_vloc    :      0.12s CPU      0.13s WALL (      13 calls)
     init_us_1    :      0.08s CPU      0.08s WALL (      13 calls)
     init_us_2    :    110.63s CPU    115.89s WALL (  907200 calls)
 
 
 
 
     dvqpsi_us    :   2123.81s CPU   2264.82s WALL (  864000 calls)
     apply_dpot_b :    354.18s CPU    369.58s WALL (  864000 calls)
     vpsifft      :    364.10s CPU    380.04s WALL (  864000 calls)
 
     dvqpsi_us    :   2123.81s CPU   2264.82s WALL (  864000 calls)
     dvqpsi_us_on :    200.02s CPU    208.60s WALL (  864000 calls)
 
 
     h_psi        :   2218.86s CPU   2305.02s WALL ( 2164615 calls)
 
     h_psi        :   2218.86s CPU   2305.02s WALL ( 2164615 calls)
     add_vuspsi   :     48.01s CPU     50.20s WALL ( 2164615 calls)
 
 
 
      Electron-phonon coupling
     elphon       :   2679.78s CPU   2853.54s WALL (      12 calls)
     elphel       :   2679.23s CPU   2847.56s WALL (     720 calls)
 
      General routines
     calbec       :    131.99s CPU    137.77s WALL ( 2222215 calls)
     fft          :      0.01s CPU      0.05s WALL (      52 calls)
     ffts         :     85.21s CPU     93.74s WALL (  864000 calls)
     fftw         :   3714.19s CPU   3904.93s WALL (66479912 calls)
     davcio       :     48.08s CPU    197.42s WALL ( 1786453 calls)
 
 
     PHONON       :      2h 5m CPU      2h13m WALL

 
   This run was terminated on:   1:44:22  28May2022            

=------------------------------------------------------------------------------=
   JOB DONE.
=------------------------------------------------------------------------------=
