
     Program PHONON v.7.0 starts on 26May2022 at  0:48:33 

     This program is part of the open-source Quantum ESPRESSO suite
     for quantum simulation of materials; please cite
         "P. Giannozzi et al., J. Phys.:Condens. Matter 21 395502 (2009);
         "P. Giannozzi et al., J. Phys.:Condens. Matter 29 465901 (2017);
         "P. Giannozzi et al., J. Chem. Phys. 152 154105 (2020);
          URL http://www.quantum-espresso.org", 
     in publications or presentations arising from this work. More details at
     http://www.quantum-espresso.org/quote

     Parallel version (MPI), running on    20 processors

     MPI processes distributed on     1 nodes
     R & G space division:  proc/nbgrp/npool/nimage =      20
     88360 MiB available memory on the printing compute node when the environment starts
 
     Reading input from /home/mgrebenyuk/QE/Examples/ThH9/200GPa/4x4x4/ph.in

     Reading xml data from directory:

     ./Th2H18.save/

     IMPORTANT: XC functional enforced from input :
     Exchange-correlation= PZ
                           (   1   1   0   0   0   0   0)
     Any further DFT definition will be discarded
     Please, verify this is what you really want

 
     Parallelization info
     --------------------
     sticks:   dense  smooth     PW     G-vecs:    dense   smooth      PW
     Min          52      52     15                 2048     2048     317
     Max          54      54     16                 2051     2051     320
     Sum        1045    1045    313                40967    40967    6355
 
     Using Slab Decomposition
 
     Reading collected, re-writing distributed wavefunctions


     Dynamical matrices for ( 4, 4, 4)  uniform grid of q-points
     With a half shift
     (  12 q-points):
       N         xq(1)         xq(2)         xq(3) 
       1   0.125000000   0.216506351   0.084359808
       2   0.125000000   0.216506351   0.253079423
       3   0.125000000   0.505181486   0.084359808
       4   0.125000000   0.505181486   0.253079423
       5   0.125000000  -0.360843918   0.084359808
       6   0.125000000  -0.360843918   0.253079423
       7   0.125000000  -0.072168784   0.084359808
       8   0.125000000  -0.072168784   0.253079423
       9   0.375000000   0.649519053   0.084359808
      10   0.375000000   0.649519053   0.253079423
      11   0.375000000  -0.216506351   0.084359808
      12   0.375000000  -0.216506351   0.253079423
     Because shifted q grid is used, q2r will not work !

     Saving dvscf to file. Distribute only q points, not irreducible represetations.

     Calculation of q =    0.1250000   0.2165064   0.0843598

     Subspace diagonalization in iterative solution of the eigenvalue problem:
     a serial algorithm will be used

     [opt_tetra]  Optimized tetrahedron method is used.
 
     Parallelization info
     --------------------
     sticks:   dense  smooth     PW     G-vecs:    dense   smooth      PW
     Min          52      52     15                 2048     2048     335
     Max          54      54     16                 2051     2051     342
     Sum        1045    1045    313                40967    40967    6777
 
     Using Slab Decomposition
 

     Title: 
     Electron-phonon coefficients for Th2H18                                    


     bravais-lattice index     =            4
     lattice parameter (alat)  =       6.9107  a.u.
     unit-cell volume          =     423.5189 (a.u.)^3
     number of atoms/cell      =           20
     number of atomic types    =            2
     number of electrons       =        26.00
     number of Kohn-Sham states=           17
     kinetic-energy cutoff     =      80.0000  Ry
     charge density cutoff     =     320.0000  Ry
     Exchange-correlation= PZ
                           (   1   1   0   0   0   0   0)

     celldm(1)=   6.910708  celldm(2)=   0.000000  celldm(3)=   1.481748
     celldm(4)=   0.000000  celldm(5)=   0.000000  celldm(6)=   0.000000

     crystal axes: (cart. coord. in units of alat)
               a(1) = (   1.000000   0.000000   0.000000 )  
               a(2) = (  -0.500000   0.866025   0.000000 )  
               a(3) = (   0.000000   0.000000   1.481748 )  

     reciprocal axes: (cart. coord. in units 2 pi/alat)
               b(1) = (  1.000000  0.577350  0.000000 )  
               b(2) = (  0.000000  1.154701  0.000000 )  
               b(3) = (  0.000000  0.000000  0.674878 )  


     PseudoPot. # 1 for H  read from file:
     ./H.UPF
     MD5 check sum: df8e43189db5a2d7f03d0dd74d71ce72
     Pseudo is Norm-conserving, Zval =  1.0
     Generated in analytical, separable form
     Using radial grid of  929 points,  0 beta functions with: 

     PseudoPot. # 2 for Th read from file:
     ./Th.UPF
     MD5 check sum: a439cebac19eeec3fe133fa10c950477
     Pseudo is Norm-conserving + core correction, Zval =  4.0
     Generated using "atomic" code by A. Dal Corso  v.5.0.99 svn rev. 10869
     Using radial grid of 1289 points,  3 beta functions with: 
                l(1) =   1
                l(2) =   2
                l(3) =   3

     atomic species   valence    mass     pseudopotential
        H              1.00     1.00794     H ( 1.00)
        Th             4.00   232.03806     Th( 1.00)

     24 Sym. Ops., with inversion, found



   Cartesian axes

     site n.     atom                  positions (alat units)
         1           Th  tau(   1) = (   0.5000000   0.2886751   1.1113112  )
         2           Th  tau(   2) = (   0.0000000   0.5773503   0.3704371  )
         3           H   tau(   3) = (   0.0000000   0.0000000   0.3704371  )
         4           H   tau(   4) = (   0.0000000   0.0000000   1.1113112  )
         5           H   tau(   5) = (   0.5000000   0.2886751   0.2298328  )
         6           H   tau(   6) = (   0.0000000   0.5773503   0.9707069  )
         7           H   tau(   7) = (  -0.0000000   0.5773503   1.2519155  )
         8           H   tau(   8) = (   0.5000000   0.2886751   0.5110414  )
         9           H   tau(   9) = (   0.5000000   0.6095530   0.0932611  )
        10           H   tau(  10) = (   0.2221116   0.1282362   0.0932611  )
        11           H   tau(  11) = (   0.7778884   0.1282362   0.0932611  )
        12           H   tau(  12) = (   0.0000000   0.2564724   0.8341353  )
        13           H   tau(  13) = (   0.2778884   0.7377892   0.8341353  )
        14           H   tau(  14) = (  -0.2778884   0.7377892   0.8341353  )
        15           H   tau(  15) = (   0.2778884   0.7377892   1.3884871  )
        16           H   tau(  16) = (  -0.0000000   0.2564724   1.3884871  )
        17           H   tau(  17) = (  -0.2778884   0.7377892   1.3884871  )
        18           H   tau(  18) = (   0.2221116   0.1282362   0.6476130  )
        19           H   tau(  19) = (   0.5000000   0.6095530   0.6476130  )
        20           H   tau(  20) = (   0.7778884   0.1282362   0.6476130  )

     number of k points=  1872 (tetrahedron method)

     Number of k-points >= 100: set verbosity='high' to print them.

     Dense  grid:    40967 G-vectors     FFT dimensions: (  40,  40,  60)

     Estimated max dynamical RAM per process >       2.79 MB

     Estimated total dynamical RAM >      55.72 MB

     The potential is recalculated from file :
     ./_ph0/Th2H18.q_1/Th2H18.save/charge-density

     Starting wfcs are   50 atomic wfcs

     Band Structure Calculation
     Davidson diagonalization with overlap
     c_bands:  1 eigenvalues not converged
     c_bands:  1 eigenvalues not converged
     c_bands:  1 eigenvalues not converged
     c_bands:  1 eigenvalues not converged
     c_bands:  1 eigenvalues not converged
     c_bands:  1 eigenvalues not converged
     c_bands:  1 eigenvalues not converged
     c_bands:  1 eigenvalues not converged
     c_bands:  1 eigenvalues not converged
     c_bands:  1 eigenvalues not converged
     c_bands:  1 eigenvalues not converged
     c_bands:  1 eigenvalues not converged
     c_bands:  1 eigenvalues not converged
     c_bands:  1 eigenvalues not converged
     c_bands:  1 eigenvalues not converged
     c_bands:  1 eigenvalues not converged
     c_bands:  1 eigenvalues not converged
     c_bands:  1 eigenvalues not converged
     c_bands:  1 eigenvalues not converged
     c_bands:  1 eigenvalues not converged
     c_bands:  1 eigenvalues not converged
     c_bands:  1 eigenvalues not converged
     c_bands:  1 eigenvalues not converged
     c_bands:  1 eigenvalues not converged
     c_bands:  1 eigenvalues not converged
     c_bands:  1 eigenvalues not converged
     c_bands:  1 eigenvalues not converged
     c_bands:  1 eigenvalues not converged
     c_bands:  1 eigenvalues not converged
     c_bands:  1 eigenvalues not converged
     c_bands:  1 eigenvalues not converged
     c_bands:  1 eigenvalues not converged
     c_bands:  1 eigenvalues not converged
     c_bands:  1 eigenvalues not converged
     c_bands:  1 eigenvalues not converged
     c_bands:  1 eigenvalues not converged
     c_bands:  1 eigenvalues not converged
     c_bands:  1 eigenvalues not converged
     c_bands:  1 eigenvalues not converged
     c_bands:  1 eigenvalues not converged
     c_bands:  1 eigenvalues not converged
     c_bands:  1 eigenvalues not converged
     c_bands:  1 eigenvalues not converged
     c_bands:  1 eigenvalues not converged
     c_bands:  1 eigenvalues not converged
     c_bands:  1 eigenvalues not converged
     c_bands:  1 eigenvalues not converged
     c_bands:  1 eigenvalues not converged
     c_bands:  1 eigenvalues not converged
     c_bands:  1 eigenvalues not converged
     c_bands:  1 eigenvalues not converged
     c_bands:  1 eigenvalues not converged
     c_bands:  1 eigenvalues not converged
     c_bands:  1 eigenvalues not converged
     c_bands:  1 eigenvalues not converged
     c_bands:  1 eigenvalues not converged
     c_bands:  1 eigenvalues not converged
     c_bands:  1 eigenvalues not converged
     c_bands:  1 eigenvalues not converged
     c_bands:  1 eigenvalues not converged
     c_bands:  1 eigenvalues not converged
     c_bands:  1 eigenvalues not converged
     c_bands:  1 eigenvalues not converged
     c_bands:  1 eigenvalues not converged
     c_bands:  1 eigenvalues not converged
     c_bands:  1 eigenvalues not converged
     c_bands:  1 eigenvalues not converged
     c_bands:  1 eigenvalues not converged
     c_bands:  1 eigenvalues not converged
     c_bands:  1 eigenvalues not converged
     c_bands:  1 eigenvalues not converged
     c_bands:  1 eigenvalues not converged
     c_bands:  1 eigenvalues not converged
     c_bands:  1 eigenvalues not converged
     c_bands:  1 eigenvalues not converged
     c_bands:  1 eigenvalues not converged
     c_bands:  1 eigenvalues not converged
     c_bands:  1 eigenvalues not converged
     c_bands:  1 eigenvalues not converged
     c_bands:  1 eigenvalues not converged
     c_bands:  1 eigenvalues not converged
     c_bands:  1 eigenvalues not converged
     c_bands:  1 eigenvalues not converged
     c_bands:  1 eigenvalues not converged
     c_bands:  1 eigenvalues not converged
     c_bands:  1 eigenvalues not converged
     c_bands:  1 eigenvalues not converged
     c_bands:  1 eigenvalues not converged
     c_bands:  1 eigenvalues not converged
     c_bands:  1 eigenvalues not converged
     c_bands:  1 eigenvalues not converged
     c_bands:  1 eigenvalues not converged
     c_bands:  1 eigenvalues not converged
     c_bands:  1 eigenvalues not converged
     c_bands:  1 eigenvalues not converged
     c_bands:  1 eigenvalues not converged
     c_bands:  1 eigenvalues not converged
     c_bands:  1 eigenvalues not converged
     c_bands:  1 eigenvalues not converged
     c_bands:  1 eigenvalues not converged
     c_bands:  1 eigenvalues not converged
     c_bands:  1 eigenvalues not converged
     c_bands:  1 eigenvalues not converged
     c_bands:  1 eigenvalues not converged
     c_bands:  1 eigenvalues not converged
     c_bands:  1 eigenvalues not converged
     c_bands:  1 eigenvalues not converged
     c_bands:  1 eigenvalues not converged
     c_bands:  1 eigenvalues not converged
     c_bands:  1 eigenvalues not converged
     c_bands:  1 eigenvalues not converged
     c_bands:  1 eigenvalues not converged
     c_bands:  1 eigenvalues not converged
     c_bands:  1 eigenvalues not converged
     c_bands:  1 eigenvalues not converged
     c_bands:  1 eigenvalues not converged

     ethr =  3.85E-11,  avg # of iterations = 69.8

     total cpu time spent up to now is      315.5 secs

     End of band structure calculation

     Number of k-points >= 100: set verbosity='high' to print the bands.

     the Fermi energy is    13.0732 ev

     Writing config to output data dir ./_ph0/Th2H18.q_1/Th2H18.save/
 
     [dfpt_tetra]  Dos(E_F)[/Ry] :   0.1466007E+02

     Electron-phonon coefficients for Th2H18                                    

     bravais-lattice index     =            4
     lattice parameter (alat)  =       6.9107  a.u.
     unit-cell volume          =     423.5189 (a.u.)^3
     number of atoms/cell      =           20
     number of atomic types    =            2
     kinetic-energy cut-off    =      80.0000  Ry
     charge density cut-off    =     320.0000  Ry
     convergence threshold     =      1.0E-08
     beta                      =       0.7000
     number of iterations used =            4
     Exchange-correlation= PZ
                           (   1   1   0   0   0   0   0)


     celldm(1)=    6.91071  celldm(2)=    0.00000  celldm(3)=    1.48175
     celldm(4)=    0.00000  celldm(5)=    0.00000  celldm(6)=    0.00000

     crystal axes: (cart. coord. in units of alat)
               a(1) = (  1.0000  0.0000  0.0000 )  
               a(2) = ( -0.5000  0.8660  0.0000 )  
               a(3) = (  0.0000  0.0000  1.4817 )  

     reciprocal axes: (cart. coord. in units 2 pi/alat)
               b(1) = (  1.0000  0.5774  0.0000 )  
               b(2) = (  0.0000  1.1547  0.0000 )  
               b(3) = (  0.0000  0.0000  0.6749 )  


     Atoms inside the unit cell: 

     Cartesian axes

     site n.  atom      mass           positions (alat units)
        1     Th 232.0381   tau(    1) = (    0.50000    0.28868    1.11131  )
        2     Th 232.0381   tau(    2) = (    0.00000    0.57735    0.37044  )
        3     H    1.0079   tau(    3) = (    0.00000    0.00000    0.37044  )
        4     H    1.0079   tau(    4) = (    0.00000    0.00000    1.11131  )
        5     H    1.0079   tau(    5) = (    0.50000    0.28868    0.22983  )
        6     H    1.0079   tau(    6) = (    0.00000    0.57735    0.97071  )
        7     H    1.0079   tau(    7) = (   -0.00000    0.57735    1.25192  )
        8     H    1.0079   tau(    8) = (    0.50000    0.28868    0.51104  )
        9     H    1.0079   tau(    9) = (    0.50000    0.60955    0.09326  )
       10     H    1.0079   tau(   10) = (    0.22211    0.12824    0.09326  )
       11     H    1.0079   tau(   11) = (    0.77789    0.12824    0.09326  )
       12     H    1.0079   tau(   12) = (    0.00000    0.25647    0.83414  )
       13     H    1.0079   tau(   13) = (    0.27789    0.73779    0.83414  )
       14     H    1.0079   tau(   14) = (   -0.27789    0.73779    0.83414  )
       15     H    1.0079   tau(   15) = (    0.27789    0.73779    1.38849  )
       16     H    1.0079   tau(   16) = (   -0.00000    0.25647    1.38849  )
       17     H    1.0079   tau(   17) = (   -0.27789    0.73779    1.38849  )
       18     H    1.0079   tau(   18) = (    0.22211    0.12824    0.64761  )
       19     H    1.0079   tau(   19) = (    0.50000    0.60955    0.64761  )
       20     H    1.0079   tau(   20) = (    0.77789    0.12824    0.64761  )

     Computing dynamical matrix for 
                    q = (   0.1250000   0.2165064   0.0843598 )
 
      2 Sym.Ops. (no q -> -q+G )


     G cutoff =  387.1109  (   2051 G-vectors)     FFT grid: ( 40, 40, 60)
     number of k points=  1872

     PseudoPot. # 1 for H  read from file:
     ./H.UPF
     MD5 check sum: df8e43189db5a2d7f03d0dd74d71ce72
     Pseudo is Norm-conserving, Zval =  1.0
     Generated in analytical, separable form
     Using radial grid of  929 points,  0 beta functions with: 

     PseudoPot. # 2 for Th read from file:
     ./Th.UPF
     MD5 check sum: a439cebac19eeec3fe133fa10c950477
     Pseudo is Norm-conserving + core correction, Zval =  4.0
     Generated using "atomic" code by A. Dal Corso  v.5.0.99 svn rev. 10869
     Using radial grid of 1289 points,  3 beta functions with: 
                l(1) =   1
                l(2) =   2
                l(3) =   3

     Mode symmetry, C_s (m)     point group:


     Atomic displacements:
     There are   60 irreducible representations

     Representation     1      1 modes -  To be done

     Representation     2      1 modes -  To be done

     Representation     3      1 modes -  To be done

     Representation     4      1 modes -  To be done

     Representation     5      1 modes -  To be done

     Representation     6      1 modes -  To be done

     Representation     7      1 modes -  To be done

     Representation     8      1 modes -  To be done

     Representation     9      1 modes -  To be done

     Representation    10      1 modes -  To be done

     Representation    11      1 modes -  To be done

     Representation    12      1 modes -  To be done

     Representation    13      1 modes -  To be done

     Representation    14      1 modes -  To be done

     Representation    15      1 modes -  To be done

     Representation    16      1 modes -  To be done

     Representation    17      1 modes -  To be done

     Representation    18      1 modes -  To be done

     Representation    19      1 modes -  To be done

     Representation    20      1 modes -  To be done

     Representation    21      1 modes -  To be done

     Representation    22      1 modes -  To be done

     Representation    23      1 modes -  To be done

     Representation    24      1 modes -  To be done

     Representation    25      1 modes -  To be done

     Representation    26      1 modes -  To be done

     Representation    27      1 modes -  To be done

     Representation    28      1 modes -  To be done

     Representation    29      1 modes -  To be done

     Representation    30      1 modes -  To be done

     Representation    31      1 modes -  To be done

     Representation    32      1 modes -  To be done

     Representation    33      1 modes -  To be done

     Representation    34      1 modes -  To be done

     Representation    35      1 modes -  To be done

     Representation    36      1 modes -  To be done

     Representation    37      1 modes -  To be done

     Representation    38      1 modes -  To be done

     Representation    39      1 modes -  To be done

     Representation    40      1 modes -  To be done

     Representation    41      1 modes -  To be done

     Representation    42      1 modes -  To be done

     Representation    43      1 modes -  To be done

     Representation    44      1 modes -  To be done

     Representation    45      1 modes -  To be done

     Representation    46      1 modes -  To be done

     Representation    47      1 modes -  To be done

     Representation    48      1 modes -  To be done

     Representation    49      1 modes -  To be done

     Representation    50      1 modes -  To be done

     Representation    51      1 modes -  To be done

     Representation    52      1 modes -  To be done

     Representation    53      1 modes -  To be done

     Representation    54      1 modes -  To be done

     Representation    55      1 modes -  To be done

     Representation    56      1 modes -  To be done

     Representation    57      1 modes -  To be done

     Representation    58      1 modes -  To be done

     Representation    59      1 modes -  To be done

     Representation    60      1 modes -  To be done



     Alpha used in Ewald sum =   2.8000
     PHONON       :   5m 6.63s CPU   5m38.22s WALL



     Representation #   1 mode #   1

     Self-consistent Calculation

      iter #   1 total cpu time :   358.7 secs   av.it.:   5.1
      thresh= 1.000E-02 alpha_mix =  0.700 |ddv_scf|^2 =  7.581E-05

      iter #   2 total cpu time :   402.8 secs   av.it.:  12.3
      thresh= 8.707E-04 alpha_mix =  0.700 |ddv_scf|^2 =  1.260E-02

      iter #   3 total cpu time :   434.3 secs   av.it.:   8.1
      thresh= 1.000E-02 alpha_mix =  0.700 |ddv_scf|^2 =  5.489E-08

      iter #   4 total cpu time :   479.8 secs   av.it.:  13.4
      thresh= 2.343E-05 alpha_mix =  0.700 |ddv_scf|^2 =  8.622E-08

      iter #   5 total cpu time :   518.8 secs   av.it.:  11.1
      thresh= 2.936E-05 alpha_mix =  0.700 |ddv_scf|^2 =  6.967E-10

     End of self-consistent calculation

     Convergence has been achieved 


     Representation #   2 mode #   2

     Self-consistent Calculation

      iter #   1 total cpu time :   540.0 secs   av.it.:   5.4
      thresh= 1.000E-02 alpha_mix =  0.700 |ddv_scf|^2 =  8.531E-05

      iter #   2 total cpu time :   590.4 secs   av.it.:  12.3
      thresh= 9.236E-04 alpha_mix =  0.700 |ddv_scf|^2 =  1.419E-02

      iter #   3 total cpu time :   622.2 secs   av.it.:   8.2
      thresh= 1.000E-02 alpha_mix =  0.700 |ddv_scf|^2 =  5.491E-08

      iter #   4 total cpu time :   668.9 secs   av.it.:  13.4
      thresh= 2.343E-05 alpha_mix =  0.700 |ddv_scf|^2 =  7.973E-08

      iter #   5 total cpu time :   712.9 secs   av.it.:  11.1
      thresh= 2.824E-05 alpha_mix =  0.700 |ddv_scf|^2 =  3.919E-10

     End of self-consistent calculation

     Convergence has been achieved 


     Representation #   3 mode #   3

     Self-consistent Calculation

      iter #   1 total cpu time :   738.8 secs   av.it.:   5.3
      thresh= 1.000E-02 alpha_mix =  0.700 |ddv_scf|^2 =  8.456E-05

      iter #   2 total cpu time :   781.4 secs   av.it.:  12.3
      thresh= 9.195E-04 alpha_mix =  0.700 |ddv_scf|^2 =  1.395E-02

      iter #   3 total cpu time :   810.3 secs   av.it.:   8.2
      thresh= 1.000E-02 alpha_mix =  0.700 |ddv_scf|^2 =  8.078E-08

      iter #   4 total cpu time :   852.0 secs   av.it.:  13.1
      thresh= 2.842E-05 alpha_mix =  0.700 |ddv_scf|^2 =  2.471E-08

      iter #   5 total cpu time :   899.7 secs   av.it.:  12.1
      thresh= 1.572E-05 alpha_mix =  0.700 |ddv_scf|^2 =  2.632E-10

     End of self-consistent calculation

     Convergence has been achieved 


     Representation #   4 mode #   4

     Self-consistent Calculation

      iter #   1 total cpu time :   921.0 secs   av.it.:   5.1
      thresh= 1.000E-02 alpha_mix =  0.700 |ddv_scf|^2 =  6.512E-05

      iter #   2 total cpu time :   999.9 secs   av.it.:  12.3
      thresh= 8.070E-04 alpha_mix =  0.700 |ddv_scf|^2 =  1.077E-02

      iter #   3 total cpu time :  1034.1 secs   av.it.:   8.0
      thresh= 1.000E-02 alpha_mix =  0.700 |ddv_scf|^2 =  2.227E-08

      iter #   4 total cpu time :  1078.9 secs   av.it.:  13.6
      thresh= 1.492E-05 alpha_mix =  0.700 |ddv_scf|^2 =  6.175E-09

     End of self-consistent calculation

     Convergence has been achieved 


     Representation #   5 mode #   5

     Self-consistent Calculation

      iter #   1 total cpu time :  1114.4 secs   av.it.:   5.2
      thresh= 1.000E-02 alpha_mix =  0.700 |ddv_scf|^2 =  7.461E-05

      iter #   2 total cpu time :  1169.9 secs   av.it.:  12.3
      thresh= 8.638E-04 alpha_mix =  0.700 |ddv_scf|^2 =  1.231E-02

      iter #   3 total cpu time :  1216.1 secs   av.it.:   8.1
      thresh= 1.000E-02 alpha_mix =  0.700 |ddv_scf|^2 =  5.799E-08

      iter #   4 total cpu time :  1262.4 secs   av.it.:  12.8
      thresh= 2.408E-05 alpha_mix =  0.700 |ddv_scf|^2 =  1.865E-08

      iter #   5 total cpu time :  1307.4 secs   av.it.:  11.6
      thresh= 1.366E-05 alpha_mix =  0.700 |ddv_scf|^2 =  7.059E-10

     End of self-consistent calculation

     Convergence has been achieved 


     Representation #   6 mode #   6

     Self-consistent Calculation

      iter #   1 total cpu time :  1337.4 secs   av.it.:   5.1
      thresh= 1.000E-02 alpha_mix =  0.700 |ddv_scf|^2 =  3.727E-05

      iter #   2 total cpu time :  1382.5 secs   av.it.:  12.3
      thresh= 6.105E-04 alpha_mix =  0.700 |ddv_scf|^2 =  6.164E-03

      iter #   3 total cpu time :  1413.1 secs   av.it.:   7.9
      thresh= 7.851E-03 alpha_mix =  0.700 |ddv_scf|^2 =  2.325E-08

      iter #   4 total cpu time :  1458.7 secs   av.it.:  13.7
      thresh= 1.525E-05 alpha_mix =  0.700 |ddv_scf|^2 =  1.413E-08

      iter #   5 total cpu time :  1502.2 secs   av.it.:  12.0
      thresh= 1.189E-05 alpha_mix =  0.700 |ddv_scf|^2 =  3.006E-10

     End of self-consistent calculation

     Convergence has been achieved 


     Representation #   7 mode #   7

     Self-consistent Calculation

      iter #   1 total cpu time :  1531.2 secs   av.it.:   4.8
      thresh= 1.000E-02 alpha_mix =  0.700 |ddv_scf|^2 =  2.692E-05

      iter #   2 total cpu time :  1581.0 secs   av.it.:  12.3
      thresh= 5.188E-04 alpha_mix =  0.700 |ddv_scf|^2 =  4.410E-03

      iter #   3 total cpu time :  1609.9 secs   av.it.:   7.9
      thresh= 6.641E-03 alpha_mix =  0.700 |ddv_scf|^2 =  1.112E-07

      iter #   4 total cpu time :  1659.1 secs   av.it.:  12.6
      thresh= 3.335E-05 alpha_mix =  0.700 |ddv_scf|^2 =  3.282E-08

      iter #   5 total cpu time :  1700.9 secs   av.it.:  11.7
      thresh= 1.812E-05 alpha_mix =  0.700 |ddv_scf|^2 =  1.739E-10

     End of self-consistent calculation

     Convergence has been achieved 


     Representation #   8 mode #   8

     Self-consistent Calculation

      iter #   1 total cpu time :  1723.1 secs   av.it.:   5.1
      thresh= 1.000E-02 alpha_mix =  0.700 |ddv_scf|^2 =  4.737E-05

      iter #   2 total cpu time :  1766.2 secs   av.it.:  12.3
      thresh= 6.883E-04 alpha_mix =  0.700 |ddv_scf|^2 =  7.831E-03

      iter #   3 total cpu time :  1795.3 secs   av.it.:   7.9
      thresh= 8.850E-03 alpha_mix =  0.700 |ddv_scf|^2 =  1.919E-08

      iter #   4 total cpu time :  1839.9 secs   av.it.:  13.6
      thresh= 1.385E-05 alpha_mix =  0.700 |ddv_scf|^2 =  5.393E-09

     End of self-consistent calculation

     Convergence has been achieved 


     Representation #   9 mode #   9

     Self-consistent Calculation

      iter #   1 total cpu time :  1865.7 secs   av.it.:   6.1
      thresh= 1.000E-02 alpha_mix =  0.700 |ddv_scf|^2 =  1.094E-04

      iter #   2 total cpu time :  1919.4 secs   av.it.:  12.3
      thresh= 1.046E-03 alpha_mix =  0.700 |ddv_scf|^2 =  1.805E-02

      iter #   3 total cpu time :  1949.8 secs   av.it.:   8.4
      thresh= 1.000E-02 alpha_mix =  0.700 |ddv_scf|^2 =  8.369E-08

      iter #   4 total cpu time :  1995.6 secs   av.it.:  12.8
      thresh= 2.893E-05 alpha_mix =  0.700 |ddv_scf|^2 =  9.464E-09

     End of self-consistent calculation

     Convergence has been achieved 


     Representation #  10 mode #  10

     Self-consistent Calculation

      iter #   1 total cpu time :  2018.8 secs   av.it.:   4.7
      thresh= 1.000E-02 alpha_mix =  0.700 |ddv_scf|^2 =  2.508E-06

      iter #   2 total cpu time :  2064.4 secs   av.it.:  12.5
      thresh= 1.584E-04 alpha_mix =  0.700 |ddv_scf|^2 =  4.034E-04

      iter #   3 total cpu time :  2094.3 secs   av.it.:   7.9
      thresh= 2.009E-03 alpha_mix =  0.700 |ddv_scf|^2 =  1.991E-08

      iter #   4 total cpu time :  2143.8 secs   av.it.:  13.2
      thresh= 1.411E-05 alpha_mix =  0.700 |ddv_scf|^2 =  3.170E-09

     End of self-consistent calculation

     Convergence has been achieved 


     Representation #  11 mode #  11

     Self-consistent Calculation

      iter #   1 total cpu time :  2166.6 secs   av.it.:   4.6
      thresh= 1.000E-02 alpha_mix =  0.700 |ddv_scf|^2 =  1.197E-05

      iter #   2 total cpu time :  2209.5 secs   av.it.:  12.3
      thresh= 3.459E-04 alpha_mix =  0.700 |ddv_scf|^2 =  1.967E-03

      iter #   3 total cpu time :  2240.3 secs   av.it.:   7.9
      thresh= 4.435E-03 alpha_mix =  0.700 |ddv_scf|^2 =  1.931E-08

      iter #   4 total cpu time :  2281.1 secs   av.it.:  13.2
      thresh= 1.390E-05 alpha_mix =  0.700 |ddv_scf|^2 =  2.823E-09

     End of self-consistent calculation

     Convergence has been achieved 


     Representation #  12 mode #  12

     Self-consistent Calculation

      iter #   1 total cpu time :  2309.3 secs   av.it.:   4.8
      thresh= 1.000E-02 alpha_mix =  0.700 |ddv_scf|^2 =  1.750E-05

      iter #   2 total cpu time :  2368.8 secs   av.it.:  12.3
      thresh= 4.184E-04 alpha_mix =  0.700 |ddv_scf|^2 =  2.902E-03

      iter #   3 total cpu time :  2399.7 secs   av.it.:   7.9
      thresh= 5.387E-03 alpha_mix =  0.700 |ddv_scf|^2 =  3.763E-09

     End of self-consistent calculation

     Convergence has been achieved 


     Representation #  13 mode #  13

     Self-consistent Calculation

      iter #   1 total cpu time :  2420.3 secs   av.it.:   4.2
      thresh= 1.000E-02 alpha_mix =  0.700 |ddv_scf|^2 =  5.557E-06

      iter #   2 total cpu time :  2465.5 secs   av.it.:  12.3
      thresh= 2.357E-04 alpha_mix =  0.700 |ddv_scf|^2 =  9.047E-04

      iter #   3 total cpu time :  2494.9 secs   av.it.:   7.9
      thresh= 3.008E-03 alpha_mix =  0.700 |ddv_scf|^2 =  3.807E-08

      iter #   4 total cpu time :  2533.3 secs   av.it.:  12.2
      thresh= 1.951E-05 alpha_mix =  0.700 |ddv_scf|^2 =  1.240E-08

      iter #   5 total cpu time :  2578.0 secs   av.it.:  11.2
      thresh= 1.114E-05 alpha_mix =  0.700 |ddv_scf|^2 =  2.227E-11

     End of self-consistent calculation

     Convergence has been achieved 


     Representation #  14 mode #  14

     Self-consistent Calculation

      iter #   1 total cpu time :  2603.1 secs   av.it.:   6.7
      thresh= 1.000E-02 alpha_mix =  0.700 |ddv_scf|^2 =  8.342E-04

      iter #   2 total cpu time :  2648.9 secs   av.it.:  12.3
      thresh= 2.888E-03 alpha_mix =  0.700 |ddv_scf|^2 =  1.374E-01

      iter #   3 total cpu time :  2684.5 secs   av.it.:  10.1
      thresh= 1.000E-02 alpha_mix =  0.700 |ddv_scf|^2 =  1.232E-06

      iter #   4 total cpu time :  2723.3 secs   av.it.:  11.2
      thresh= 1.110E-04 alpha_mix =  0.700 |ddv_scf|^2 =  2.770E-07

      iter #   5 total cpu time :  2759.0 secs   av.it.:  10.6
      thresh= 5.263E-05 alpha_mix =  0.700 |ddv_scf|^2 =  3.519E-10

     End of self-consistent calculation

     Convergence has been achieved 


     Representation #  15 mode #  15

     Self-consistent Calculation

      iter #   1 total cpu time :  2781.2 secs   av.it.:   4.9
      thresh= 1.000E-02 alpha_mix =  0.700 |ddv_scf|^2 =  2.498E-05

      iter #   2 total cpu time :  2821.8 secs   av.it.:  12.3
      thresh= 4.998E-04 alpha_mix =  0.700 |ddv_scf|^2 =  4.145E-03

      iter #   3 total cpu time :  2851.5 secs   av.it.:   7.9
      thresh= 6.439E-03 alpha_mix =  0.700 |ddv_scf|^2 =  5.718E-09

     End of self-consistent calculation

     Convergence has been achieved 


     Representation #  16 mode #  16

     Self-consistent Calculation

      iter #   1 total cpu time :  2876.7 secs   av.it.:   4.7
      thresh= 1.000E-02 alpha_mix =  0.700 |ddv_scf|^2 =  1.350E-05

      iter #   2 total cpu time :  2920.5 secs   av.it.:  12.3
      thresh= 3.675E-04 alpha_mix =  0.700 |ddv_scf|^2 =  2.228E-03

      iter #   3 total cpu time :  2951.9 secs   av.it.:   7.9
      thresh= 4.720E-03 alpha_mix =  0.700 |ddv_scf|^2 =  6.290E-09

     End of self-consistent calculation

     Convergence has been achieved 


     Representation #  17 mode #  17

     Self-consistent Calculation

      iter #   1 total cpu time :  2975.7 secs   av.it.:   4.5
      thresh= 1.000E-02 alpha_mix =  0.700 |ddv_scf|^2 =  8.743E-06

      iter #   2 total cpu time :  3026.2 secs   av.it.:  12.3
      thresh= 2.957E-04 alpha_mix =  0.700 |ddv_scf|^2 =  1.430E-03

      iter #   3 total cpu time :  3058.1 secs   av.it.:   7.9
      thresh= 3.782E-03 alpha_mix =  0.700 |ddv_scf|^2 =  2.943E-08

      iter #   4 total cpu time :  3110.8 secs   av.it.:  12.8
      thresh= 1.715E-05 alpha_mix =  0.700 |ddv_scf|^2 =  1.564E-08

      iter #   5 total cpu time :  3151.2 secs   av.it.:  11.2
      thresh= 1.251E-05 alpha_mix =  0.700 |ddv_scf|^2 =  4.577E-11

     End of self-consistent calculation

     Convergence has been achieved 


     Representation #  18 mode #  18

     Self-consistent Calculation

      iter #   1 total cpu time :  3177.8 secs   av.it.:   5.0
      thresh= 1.000E-02 alpha_mix =  0.700 |ddv_scf|^2 =  2.594E-05

      iter #   2 total cpu time :  3251.2 secs   av.it.:  12.3
      thresh= 5.093E-04 alpha_mix =  0.700 |ddv_scf|^2 =  4.296E-03

      iter #   3 total cpu time :  3298.6 secs   av.it.:   7.9
      thresh= 6.554E-03 alpha_mix =  0.700 |ddv_scf|^2 =  1.031E-08

      iter #   4 total cpu time :  3353.8 secs   av.it.:  14.1
      thresh= 1.015E-05 alpha_mix =  0.700 |ddv_scf|^2 =  8.244E-09

     End of self-consistent calculation

     Convergence has been achieved 


     Representation #  19 mode #  19

     Self-consistent Calculation

      iter #   1 total cpu time :  3374.3 secs   av.it.:   4.8
      thresh= 1.000E-02 alpha_mix =  0.700 |ddv_scf|^2 =  1.681E-05

      iter #   2 total cpu time :  3431.2 secs   av.it.:  12.4
      thresh= 4.100E-04 alpha_mix =  0.700 |ddv_scf|^2 =  2.810E-03

      iter #   3 total cpu time :  3462.9 secs   av.it.:   7.9
      thresh= 5.301E-03 alpha_mix =  0.700 |ddv_scf|^2 =  6.626E-08

      iter #   4 total cpu time :  3524.0 secs   av.it.:  12.6
      thresh= 2.574E-05 alpha_mix =  0.700 |ddv_scf|^2 =  5.185E-08

      iter #   5 total cpu time :  3568.5 secs   av.it.:  10.8
      thresh= 2.277E-05 alpha_mix =  0.700 |ddv_scf|^2 =  1.069E-10

     End of self-consistent calculation

     Convergence has been achieved 


     Representation #  20 mode #  20

     Self-consistent Calculation

      iter #   1 total cpu time :  3591.6 secs   av.it.:   4.9
      thresh= 1.000E-02 alpha_mix =  0.700 |ddv_scf|^2 =  4.343E-05

      iter #   2 total cpu time :  3641.6 secs   av.it.:  12.3
      thresh= 6.590E-04 alpha_mix =  0.700 |ddv_scf|^2 =  7.222E-03

      iter #   3 total cpu time :  3670.6 secs   av.it.:   7.9
      thresh= 8.498E-03 alpha_mix =  0.700 |ddv_scf|^2 =  2.766E-08

      iter #   4 total cpu time :  3723.2 secs   av.it.:  13.5
      thresh= 1.663E-05 alpha_mix =  0.700 |ddv_scf|^2 =  4.307E-08

      iter #   5 total cpu time :  3760.6 secs   av.it.:  11.1
      thresh= 2.075E-05 alpha_mix =  0.700 |ddv_scf|^2 =  1.754E-10

     End of self-consistent calculation

     Convergence has been achieved 


     Representation #  21 mode #  21

     Self-consistent Calculation

      iter #   1 total cpu time :  3787.1 secs   av.it.:   4.6
      thresh= 1.000E-02 alpha_mix =  0.700 |ddv_scf|^2 =  3.446E-07

      iter #   2 total cpu time :  3832.2 secs   av.it.:  12.7
      thresh= 5.870E-05 alpha_mix =  0.700 |ddv_scf|^2 =  4.282E-05

      iter #   3 total cpu time :  3861.4 secs   av.it.:   8.0
      thresh= 6.544E-04 alpha_mix =  0.700 |ddv_scf|^2 =  1.732E-07

      iter #   4 total cpu time :  3903.4 secs   av.it.:  11.1
      thresh= 4.162E-05 alpha_mix =  0.700 |ddv_scf|^2 =  9.132E-09

     End of self-consistent calculation

     Convergence has been achieved 


     Representation #  22 mode #  22

     Self-consistent Calculation

      iter #   1 total cpu time :  3941.6 secs   av.it.:   4.9
      thresh= 1.000E-02 alpha_mix =  0.700 |ddv_scf|^2 =  3.797E-05

      iter #   2 total cpu time :  3982.7 secs   av.it.:  12.3
      thresh= 6.162E-04 alpha_mix =  0.700 |ddv_scf|^2 =  6.279E-03

      iter #   3 total cpu time :  4015.1 secs   av.it.:   7.9
      thresh= 7.924E-03 alpha_mix =  0.700 |ddv_scf|^2 =  1.508E-08

      iter #   4 total cpu time :  4071.3 secs   av.it.:  13.9
      thresh= 1.228E-05 alpha_mix =  0.700 |ddv_scf|^2 =  6.331E-09

     End of self-consistent calculation

     Convergence has been achieved 


     Representation #  23 mode #  23

     Self-consistent Calculation

      iter #   1 total cpu time :  4106.3 secs   av.it.:   5.4
      thresh= 1.000E-02 alpha_mix =  0.700 |ddv_scf|^2 =  6.940E-05

      iter #   2 total cpu time :  4167.6 secs   av.it.:  12.3
      thresh= 8.331E-04 alpha_mix =  0.700 |ddv_scf|^2 =  1.151E-02

      iter #   3 total cpu time :  4198.2 secs   av.it.:   8.1
      thresh= 1.000E-02 alpha_mix =  0.700 |ddv_scf|^2 =  2.583E-08

      iter #   4 total cpu time :  4243.7 secs   av.it.:  14.0
      thresh= 1.607E-05 alpha_mix =  0.700 |ddv_scf|^2 =  2.774E-08

      iter #   5 total cpu time :  4288.3 secs   av.it.:  11.9
      thresh= 1.666E-05 alpha_mix =  0.700 |ddv_scf|^2 =  2.589E-10

     End of self-consistent calculation

     Convergence has been achieved 


     Representation #  24 mode #  24

     Self-consistent Calculation

      iter #   1 total cpu time :  4313.6 secs   av.it.:   5.2
      thresh= 1.000E-02 alpha_mix =  0.700 |ddv_scf|^2 =  6.999E-05

      iter #   2 total cpu time :  4365.3 secs   av.it.:  12.3
      thresh= 8.366E-04 alpha_mix =  0.700 |ddv_scf|^2 =  1.154E-02

      iter #   3 total cpu time :  4399.4 secs   av.it.:   8.1
      thresh= 1.000E-02 alpha_mix =  0.700 |ddv_scf|^2 =  8.590E-08

      iter #   4 total cpu time :  4445.4 secs   av.it.:  13.1
      thresh= 2.931E-05 alpha_mix =  0.700 |ddv_scf|^2 =  2.714E-08

      iter #   5 total cpu time :  4486.4 secs   av.it.:  12.1
      thresh= 1.647E-05 alpha_mix =  0.700 |ddv_scf|^2 =  1.260E-10

     End of self-consistent calculation

     Convergence has been achieved 


     Representation #  25 mode #  25

     Self-consistent Calculation

      iter #   1 total cpu time :  4509.6 secs   av.it.:   5.0
      thresh= 1.000E-02 alpha_mix =  0.700 |ddv_scf|^2 =  1.924E-05

      iter #   2 total cpu time :  4569.0 secs   av.it.:  12.4
      thresh= 4.386E-04 alpha_mix =  0.700 |ddv_scf|^2 =  3.207E-03

      iter #   3 total cpu time :  4597.6 secs   av.it.:   7.9
      thresh= 5.663E-03 alpha_mix =  0.700 |ddv_scf|^2 =  5.761E-08

      iter #   4 total cpu time :  4654.8 secs   av.it.:  13.0
      thresh= 2.400E-05 alpha_mix =  0.700 |ddv_scf|^2 =  6.489E-08

      iter #   5 total cpu time :  4698.9 secs   av.it.:  11.0
      thresh= 2.547E-05 alpha_mix =  0.700 |ddv_scf|^2 =  2.434E-10

     End of self-consistent calculation

     Convergence has been achieved 


     Representation #  26 mode #  26

     Self-consistent Calculation

      iter #   1 total cpu time :  4733.9 secs   av.it.:   4.8
      thresh= 1.000E-02 alpha_mix =  0.700 |ddv_scf|^2 =  1.371E-05

      iter #   2 total cpu time :  4796.6 secs   av.it.:  12.4
      thresh= 3.703E-04 alpha_mix =  0.700 |ddv_scf|^2 =  2.271E-03

      iter #   3 total cpu time :  4831.0 secs   av.it.:   7.9
      thresh= 4.766E-03 alpha_mix =  0.700 |ddv_scf|^2 =  2.016E-08

      iter #   4 total cpu time :  4881.1 secs   av.it.:  13.6
      thresh= 1.420E-05 alpha_mix =  0.700 |ddv_scf|^2 =  1.453E-08

      iter #   5 total cpu time :  4919.8 secs   av.it.:  11.9
      thresh= 1.205E-05 alpha_mix =  0.700 |ddv_scf|^2 =  7.063E-11

     End of self-consistent calculation

     Convergence has been achieved 


     Representation #  27 mode #  27

     Self-consistent Calculation

      iter #   1 total cpu time :  4946.9 secs   av.it.:   5.4
      thresh= 1.000E-02 alpha_mix =  0.700 |ddv_scf|^2 =  7.084E-05

      iter #   2 total cpu time :  4991.1 secs   av.it.:  12.3
      thresh= 8.417E-04 alpha_mix =  0.700 |ddv_scf|^2 =  1.178E-02

      iter #   3 total cpu time :  5021.8 secs   av.it.:   8.1
      thresh= 1.000E-02 alpha_mix =  0.700 |ddv_scf|^2 =  3.995E-08

      iter #   4 total cpu time :  5070.7 secs   av.it.:  13.6
      thresh= 1.999E-05 alpha_mix =  0.700 |ddv_scf|^2 =  5.182E-08

      iter #   5 total cpu time :  5114.2 secs   av.it.:  11.3
      thresh= 2.276E-05 alpha_mix =  0.700 |ddv_scf|^2 =  1.834E-10

     End of self-consistent calculation

     Convergence has been achieved 


     Representation #  28 mode #  28

     Self-consistent Calculation

      iter #   1 total cpu time :  5141.7 secs   av.it.:   6.7
      thresh= 1.000E-02 alpha_mix =  0.700 |ddv_scf|^2 =  6.395E-04

      iter #   2 total cpu time :  5198.2 secs   av.it.:  12.3
      thresh= 2.529E-03 alpha_mix =  0.700 |ddv_scf|^2 =  1.052E-01

      iter #   3 total cpu time :  5238.4 secs   av.it.:   9.9
      thresh= 1.000E-02 alpha_mix =  0.700 |ddv_scf|^2 =  1.378E-06

      iter #   4 total cpu time :  5278.2 secs   av.it.:  11.6
      thresh= 1.174E-04 alpha_mix =  0.700 |ddv_scf|^2 =  4.398E-07

      iter #   5 total cpu time :  5325.2 secs   av.it.:  10.8
      thresh= 6.631E-05 alpha_mix =  0.700 |ddv_scf|^2 =  1.183E-10

     End of self-consistent calculation

     Convergence has been achieved 


     Representation #  29 mode #  29

     Self-consistent Calculation

      iter #   1 total cpu time :  5347.1 secs   av.it.:   4.9
      thresh= 1.000E-02 alpha_mix =  0.700 |ddv_scf|^2 =  3.171E-05

      iter #   2 total cpu time :  5399.0 secs   av.it.:  12.3
      thresh= 5.631E-04 alpha_mix =  0.700 |ddv_scf|^2 =  5.274E-03

      iter #   3 total cpu time :  5440.1 secs   av.it.:   7.9
      thresh= 7.262E-03 alpha_mix =  0.700 |ddv_scf|^2 =  2.517E-08

      iter #   4 total cpu time :  5482.9 secs   av.it.:  13.3
      thresh= 1.586E-05 alpha_mix =  0.700 |ddv_scf|^2 =  3.470E-08

      iter #   5 total cpu time :  5519.3 secs   av.it.:  11.0
      thresh= 1.863E-05 alpha_mix =  0.700 |ddv_scf|^2 =  3.760E-10

     End of self-consistent calculation

     Convergence has been achieved 


     Representation #  30 mode #  30

     Self-consistent Calculation

      iter #   1 total cpu time :  5548.6 secs   av.it.:   5.4
      thresh= 1.000E-02 alpha_mix =  0.700 |ddv_scf|^2 =  1.017E-04

      iter #   2 total cpu time :  5605.6 secs   av.it.:  12.3
      thresh= 1.008E-03 alpha_mix =  0.700 |ddv_scf|^2 =  1.678E-02

      iter #   3 total cpu time :  5648.8 secs   av.it.:   8.4
      thresh= 1.000E-02 alpha_mix =  0.700 |ddv_scf|^2 =  9.639E-08

      iter #   4 total cpu time :  5696.8 secs   av.it.:  13.2
      thresh= 3.105E-05 alpha_mix =  0.700 |ddv_scf|^2 =  3.107E-08

      iter #   5 total cpu time :  5743.3 secs   av.it.:  12.1
      thresh= 1.763E-05 alpha_mix =  0.700 |ddv_scf|^2 =  4.219E-10

     End of self-consistent calculation

     Convergence has been achieved 


     Representation #  31 mode #  31

     Self-consistent Calculation

      iter #   1 total cpu time :  5765.6 secs   av.it.:   4.7
      thresh= 1.000E-02 alpha_mix =  0.700 |ddv_scf|^2 =  1.517E-07

      iter #   2 total cpu time :  5823.8 secs   av.it.:  13.4
      thresh= 3.894E-05 alpha_mix =  0.700 |ddv_scf|^2 =  2.512E-07

      iter #   3 total cpu time :  5883.7 secs   av.it.:  12.3
      thresh= 5.012E-05 alpha_mix =  0.700 |ddv_scf|^2 =  4.559E-08

      iter #   4 total cpu time :  5926.3 secs   av.it.:  11.6
      thresh= 2.135E-05 alpha_mix =  0.700 |ddv_scf|^2 =  2.312E-09

     End of self-consistent calculation

     Convergence has been achieved 


     Representation #  32 mode #  32

     Self-consistent Calculation

      iter #   1 total cpu time :  5953.7 secs   av.it.:   4.8
      thresh= 1.000E-02 alpha_mix =  0.700 |ddv_scf|^2 =  5.291E-07

      iter #   2 total cpu time :  6006.5 secs   av.it.:  13.3
      thresh= 7.274E-05 alpha_mix =  0.700 |ddv_scf|^2 =  3.079E-06

      iter #   3 total cpu time :  6058.1 secs   av.it.:  11.4
      thresh= 1.755E-04 alpha_mix =  0.700 |ddv_scf|^2 =  1.719E-08

      iter #   4 total cpu time :  6110.7 secs   av.it.:  12.5
      thresh= 1.311E-05 alpha_mix =  0.700 |ddv_scf|^2 =  1.420E-09

     End of self-consistent calculation

     Convergence has been achieved 


     Representation #  33 mode #  33

     Self-consistent Calculation

      iter #   1 total cpu time :  6138.7 secs   av.it.:   4.9
      thresh= 1.000E-02 alpha_mix =  0.700 |ddv_scf|^2 =  4.624E-07

      iter #   2 total cpu time :  6186.1 secs   av.it.:  13.5
      thresh= 6.800E-05 alpha_mix =  0.700 |ddv_scf|^2 =  2.822E-06

      iter #   3 total cpu time :  6229.5 secs   av.it.:  11.5
      thresh= 1.680E-04 alpha_mix =  0.700 |ddv_scf|^2 =  1.422E-08

      iter #   4 total cpu time :  6282.6 secs   av.it.:  12.3
      thresh= 1.192E-05 alpha_mix =  0.700 |ddv_scf|^2 =  1.609E-09

     End of self-consistent calculation

     Convergence has been achieved 


     Representation #  34 mode #  34

     Self-consistent Calculation

      iter #   1 total cpu time :  6312.8 secs   av.it.:   6.1
      thresh= 1.000E-02 alpha_mix =  0.700 |ddv_scf|^2 =  3.333E-06

      iter #   2 total cpu time :  6366.3 secs   av.it.:  13.1
      thresh= 1.826E-04 alpha_mix =  0.700 |ddv_scf|^2 =  1.787E-05

      iter #   3 total cpu time :  6414.7 secs   av.it.:  11.3
      thresh= 4.227E-04 alpha_mix =  0.700 |ddv_scf|^2 =  1.912E-07

      iter #   4 total cpu time :  6490.2 secs   av.it.:  12.1
      thresh= 4.373E-05 alpha_mix =  0.700 |ddv_scf|^2 =  1.852E-09

     End of self-consistent calculation

     Convergence has been achieved 


     Representation #  35 mode #  35

     Self-consistent Calculation

      iter #   1 total cpu time :  6520.5 secs   av.it.:   5.1
      thresh= 1.000E-02 alpha_mix =  0.700 |ddv_scf|^2 =  9.491E-07

      iter #   2 total cpu time :  6577.0 secs   av.it.:  13.4
      thresh= 9.742E-05 alpha_mix =  0.700 |ddv_scf|^2 =  5.402E-06

      iter #   3 total cpu time :  6625.7 secs   av.it.:  11.5
      thresh= 2.324E-04 alpha_mix =  0.700 |ddv_scf|^2 =  5.706E-08

      iter #   4 total cpu time :  6678.2 secs   av.it.:  12.1
      thresh= 2.389E-05 alpha_mix =  0.700 |ddv_scf|^2 =  7.154E-10

     End of self-consistent calculation

     Convergence has been achieved 


     Representation #  36 mode #  36

     Self-consistent Calculation

      iter #   1 total cpu time :  6700.7 secs   av.it.:   4.8
      thresh= 1.000E-02 alpha_mix =  0.700 |ddv_scf|^2 =  3.848E-07

      iter #   2 total cpu time :  6753.3 secs   av.it.:  13.3
      thresh= 6.203E-05 alpha_mix =  0.700 |ddv_scf|^2 =  1.747E-06

      iter #   3 total cpu time :  6794.8 secs   av.it.:  11.5
      thresh= 1.322E-04 alpha_mix =  0.700 |ddv_scf|^2 =  4.023E-08

      iter #   4 total cpu time :  6858.0 secs   av.it.:  12.2
      thresh= 2.006E-05 alpha_mix =  0.700 |ddv_scf|^2 =  1.605E-09

     End of self-consistent calculation

     Convergence has been achieved 


     Representation #  37 mode #  37

     Self-consistent Calculation

      iter #   1 total cpu time :  6876.9 secs   av.it.:   4.5
      thresh= 1.000E-02 alpha_mix =  0.700 |ddv_scf|^2 =  2.683E-07

      iter #   2 total cpu time :  6927.0 secs   av.it.:  13.2
      thresh= 5.180E-05 alpha_mix =  0.700 |ddv_scf|^2 =  7.803E-07

      iter #   3 total cpu time :  6975.1 secs   av.it.:  11.7
      thresh= 8.833E-05 alpha_mix =  0.700 |ddv_scf|^2 =  5.859E-08

      iter #   4 total cpu time :  7030.0 secs   av.it.:  11.9
      thresh= 2.421E-05 alpha_mix =  0.700 |ddv_scf|^2 =  2.444E-09

     End of self-consistent calculation

     Convergence has been achieved 


     Representation #  38 mode #  38

     Self-consistent Calculation

      iter #   1 total cpu time :  7059.7 secs   av.it.:   5.2
      thresh= 1.000E-02 alpha_mix =  0.700 |ddv_scf|^2 =  1.124E-06

      iter #   2 total cpu time :  7115.0 secs   av.it.:  13.4
      thresh= 1.060E-04 alpha_mix =  0.700 |ddv_scf|^2 =  7.105E-06

      iter #   3 total cpu time :  7159.3 secs   av.it.:  11.4
      thresh= 2.665E-04 alpha_mix =  0.700 |ddv_scf|^2 =  3.193E-08

      iter #   4 total cpu time :  7202.8 secs   av.it.:  12.2
      thresh= 1.787E-05 alpha_mix =  0.700 |ddv_scf|^2 =  1.329E-09

     End of self-consistent calculation

     Convergence has been achieved 


     Representation #  39 mode #  39

     Self-consistent Calculation

      iter #   1 total cpu time :  7228.8 secs   av.it.:   4.8
      thresh= 1.000E-02 alpha_mix =  0.700 |ddv_scf|^2 =  3.917E-07

      iter #   2 total cpu time :  7287.4 secs   av.it.:  13.4
      thresh= 6.259E-05 alpha_mix =  0.700 |ddv_scf|^2 =  2.238E-06

      iter #   3 total cpu time :  7345.6 secs   av.it.:  11.5
      thresh= 1.496E-04 alpha_mix =  0.700 |ddv_scf|^2 =  1.579E-08

      iter #   4 total cpu time :  7391.9 secs   av.it.:  12.2
      thresh= 1.257E-05 alpha_mix =  0.700 |ddv_scf|^2 =  9.373E-10

     End of self-consistent calculation

     Convergence has been achieved 


     Representation #  40 mode #  40

     Self-consistent Calculation

      iter #   1 total cpu time :  7416.3 secs   av.it.:   5.2
      thresh= 1.000E-02 alpha_mix =  0.700 |ddv_scf|^2 =  9.249E-07

      iter #   2 total cpu time :  7466.6 secs   av.it.:  13.5
      thresh= 9.617E-05 alpha_mix =  0.700 |ddv_scf|^2 =  6.056E-06

      iter #   3 total cpu time :  7516.6 secs   av.it.:  11.4
      thresh= 2.461E-04 alpha_mix =  0.700 |ddv_scf|^2 =  2.470E-08

      iter #   4 total cpu time :  7557.4 secs   av.it.:  12.2
      thresh= 1.572E-05 alpha_mix =  0.700 |ddv_scf|^2 =  1.335E-09

     End of self-consistent calculation

     Convergence has been achieved 


     Representation #  41 mode #  41

     Self-consistent Calculation

      iter #   1 total cpu time :  7578.3 secs   av.it.:   4.5
      thresh= 1.000E-02 alpha_mix =  0.700 |ddv_scf|^2 =  5.119E-07

      iter #   2 total cpu time :  7625.5 secs   av.it.:  12.9
      thresh= 7.155E-05 alpha_mix =  0.700 |ddv_scf|^2 =  1.798E-06

      iter #   3 total cpu time :  7666.3 secs   av.it.:  11.4
      thresh= 1.341E-04 alpha_mix =  0.700 |ddv_scf|^2 =  7.619E-08

      iter #   4 total cpu time :  7708.6 secs   av.it.:  12.0
      thresh= 2.760E-05 alpha_mix =  0.700 |ddv_scf|^2 =  2.061E-09

     End of self-consistent calculation

     Convergence has been achieved 


     Representation #  42 mode #  42

     Self-consistent Calculation

      iter #   1 total cpu time :  7735.7 secs   av.it.:   4.7
      thresh= 1.000E-02 alpha_mix =  0.700 |ddv_scf|^2 =  5.066E-07

      iter #   2 total cpu time :  7784.1 secs   av.it.:  13.1
      thresh= 7.118E-05 alpha_mix =  0.700 |ddv_scf|^2 =  2.113E-06

      iter #   3 total cpu time :  7827.0 secs   av.it.:  11.5
      thresh= 1.454E-04 alpha_mix =  0.700 |ddv_scf|^2 =  6.566E-08

      iter #   4 total cpu time :  7870.1 secs   av.it.:  12.1
      thresh= 2.563E-05 alpha_mix =  0.700 |ddv_scf|^2 =  1.348E-09

     End of self-consistent calculation

     Convergence has been achieved 


     Representation #  43 mode #  43

     Self-consistent Calculation

      iter #   1 total cpu time :  7916.3 secs   av.it.:   5.2
      thresh= 1.000E-02 alpha_mix =  0.700 |ddv_scf|^2 =  1.230E-06

      iter #   2 total cpu time :  7965.5 secs   av.it.:  13.4
      thresh= 1.109E-04 alpha_mix =  0.700 |ddv_scf|^2 =  8.097E-06

      iter #   3 total cpu time :  8006.3 secs   av.it.:  11.4
      thresh= 2.846E-04 alpha_mix =  0.700 |ddv_scf|^2 =  1.919E-08

      iter #   4 total cpu time :  8052.9 secs   av.it.:  12.2
      thresh= 1.385E-05 alpha_mix =  0.700 |ddv_scf|^2 =  1.020E-09

     End of self-consistent calculation

     Convergence has been achieved 


     Representation #  44 mode #  44

     Self-consistent Calculation

      iter #   1 total cpu time :  8076.0 secs   av.it.:   4.8
      thresh= 1.000E-02 alpha_mix =  0.700 |ddv_scf|^2 =  2.255E-07

      iter #   2 total cpu time :  8125.2 secs   av.it.:  13.6
      thresh= 4.748E-05 alpha_mix =  0.700 |ddv_scf|^2 =  9.573E-07

      iter #   3 total cpu time :  8165.8 secs   av.it.:  11.8
      thresh= 9.784E-05 alpha_mix =  0.700 |ddv_scf|^2 =  4.116E-08

      iter #   4 total cpu time :  8209.6 secs   av.it.:  11.8
      thresh= 2.029E-05 alpha_mix =  0.700 |ddv_scf|^2 =  1.100E-09

     End of self-consistent calculation

     Convergence has been achieved 


     Representation #  45 mode #  45

     Self-consistent Calculation

      iter #   1 total cpu time :  8233.9 secs   av.it.:   4.4
      thresh= 1.000E-02 alpha_mix =  0.700 |ddv_scf|^2 =  9.116E-08

      iter #   2 total cpu time :  8286.0 secs   av.it.:  13.4
      thresh= 3.019E-05 alpha_mix =  0.700 |ddv_scf|^2 =  2.731E-07

      iter #   3 total cpu time :  8330.8 secs   av.it.:  11.9
      thresh= 5.226E-05 alpha_mix =  0.700 |ddv_scf|^2 =  2.420E-08

      iter #   4 total cpu time :  8371.0 secs   av.it.:  11.7
      thresh= 1.556E-05 alpha_mix =  0.700 |ddv_scf|^2 =  1.475E-09

     End of self-consistent calculation

     Convergence has been achieved 


     Representation #  46 mode #  46

     Self-consistent Calculation

      iter #   1 total cpu time :  8398.7 secs   av.it.:   6.1
      thresh= 1.000E-02 alpha_mix =  0.700 |ddv_scf|^2 =  2.608E-06

      iter #   2 total cpu time :  8462.5 secs   av.it.:  13.0
      thresh= 1.615E-04 alpha_mix =  0.700 |ddv_scf|^2 =  1.033E-05

      iter #   3 total cpu time :  8501.5 secs   av.it.:  11.4
      thresh= 3.214E-04 alpha_mix =  0.700 |ddv_scf|^2 =  3.667E-07

      iter #   4 total cpu time :  8546.2 secs   av.it.:  11.8
      thresh= 6.056E-05 alpha_mix =  0.700 |ddv_scf|^2 =  1.235E-09

     End of self-consistent calculation

     Convergence has been achieved 


     Representation #  47 mode #  47

     Self-consistent Calculation

      iter #   1 total cpu time :  8573.1 secs   av.it.:   5.1
      thresh= 1.000E-02 alpha_mix =  0.700 |ddv_scf|^2 =  8.519E-07

      iter #   2 total cpu time :  8622.1 secs   av.it.:  13.4
      thresh= 9.230E-05 alpha_mix =  0.700 |ddv_scf|^2 =  5.210E-06

      iter #   3 total cpu time :  8662.8 secs   av.it.:  11.4
      thresh= 2.283E-04 alpha_mix =  0.700 |ddv_scf|^2 =  2.803E-08

      iter #   4 total cpu time :  8703.7 secs   av.it.:  12.2
      thresh= 1.674E-05 alpha_mix =  0.700 |ddv_scf|^2 =  1.442E-09

     End of self-consistent calculation

     Convergence has been achieved 


     Representation #  48 mode #  48

     Self-consistent Calculation

      iter #   1 total cpu time :  8745.2 secs   av.it.:   5.0
      thresh= 1.000E-02 alpha_mix =  0.700 |ddv_scf|^2 =  6.044E-07

      iter #   2 total cpu time :  8792.8 secs   av.it.:  13.5
      thresh= 7.774E-05 alpha_mix =  0.700 |ddv_scf|^2 =  3.811E-06

      iter #   3 total cpu time :  8835.4 secs   av.it.:  11.4
      thresh= 1.952E-04 alpha_mix =  0.700 |ddv_scf|^2 =  1.610E-08

      iter #   4 total cpu time :  8880.3 secs   av.it.:  12.4
      thresh= 1.269E-05 alpha_mix =  0.700 |ddv_scf|^2 =  8.063E-10

     End of self-consistent calculation

     Convergence has been achieved 


     Representation #  49 mode #  49

     Self-consistent Calculation

      iter #   1 total cpu time :  8906.3 secs   av.it.:   4.8
      thresh= 1.000E-02 alpha_mix =  0.700 |ddv_scf|^2 =  2.327E-07

      iter #   2 total cpu time :  8966.9 secs   av.it.:  13.5
      thresh= 4.824E-05 alpha_mix =  0.700 |ddv_scf|^2 =  1.206E-06

      iter #   3 total cpu time :  9019.7 secs   av.it.:  11.6
      thresh= 1.098E-04 alpha_mix =  0.700 |ddv_scf|^2 =  1.966E-08

      iter #   4 total cpu time :  9072.9 secs   av.it.:  12.1
      thresh= 1.402E-05 alpha_mix =  0.700 |ddv_scf|^2 =  1.037E-09

     End of self-consistent calculation

     Convergence has been achieved 


     Representation #  50 mode #  50

     Self-consistent Calculation

      iter #   1 total cpu time :  9108.7 secs   av.it.:   5.0
      thresh= 1.000E-02 alpha_mix =  0.700 |ddv_scf|^2 =  7.819E-07

      iter #   2 total cpu time :  9158.2 secs   av.it.:  13.4
      thresh= 8.842E-05 alpha_mix =  0.700 |ddv_scf|^2 =  4.940E-06

      iter #   3 total cpu time :  9199.2 secs   av.it.:  11.4
      thresh= 2.223E-04 alpha_mix =  0.700 |ddv_scf|^2 =  2.611E-08

      iter #   4 total cpu time :  9247.0 secs   av.it.:  12.1
      thresh= 1.616E-05 alpha_mix =  0.700 |ddv_scf|^2 =  1.315E-09

     End of self-consistent calculation

     Convergence has been achieved 


     Representation #  51 mode #  51

     Self-consistent Calculation

      iter #   1 total cpu time :  9267.8 secs   av.it.:   4.6
      thresh= 1.000E-02 alpha_mix =  0.700 |ddv_scf|^2 =  1.572E-07

      iter #   2 total cpu time :  9320.5 secs   av.it.:  13.5
      thresh= 3.964E-05 alpha_mix =  0.700 |ddv_scf|^2 =  6.646E-07

      iter #   3 total cpu time :  9366.6 secs   av.it.:  11.8
      thresh= 8.152E-05 alpha_mix =  0.700 |ddv_scf|^2 =  2.721E-08

      iter #   4 total cpu time :  9409.6 secs   av.it.:  11.8
      thresh= 1.650E-05 alpha_mix =  0.700 |ddv_scf|^2 =  1.296E-09

     End of self-consistent calculation

     Convergence has been achieved 


     Representation #  52 mode #  52

     Self-consistent Calculation

      iter #   1 total cpu time :  9429.7 secs   av.it.:   4.4
      thresh= 1.000E-02 alpha_mix =  0.700 |ddv_scf|^2 =  6.833E-08

      iter #   2 total cpu time :  9494.4 secs   av.it.:  13.2
      thresh= 2.614E-05 alpha_mix =  0.700 |ddv_scf|^2 =  9.364E-08

      iter #   3 total cpu time :  9541.7 secs   av.it.:  12.1
      thresh= 3.060E-05 alpha_mix =  0.700 |ddv_scf|^2 =  2.599E-08

      iter #   4 total cpu time :  9581.4 secs   av.it.:  11.7
      thresh= 1.612E-05 alpha_mix =  0.700 |ddv_scf|^2 =  1.794E-09

     End of self-consistent calculation

     Convergence has been achieved 


     Representation #  53 mode #  53

     Self-consistent Calculation

      iter #   1 total cpu time :  9610.6 secs   av.it.:   4.9
      thresh= 1.000E-02 alpha_mix =  0.700 |ddv_scf|^2 =  5.319E-07

      iter #   2 total cpu time :  9659.3 secs   av.it.:  13.4
      thresh= 7.293E-05 alpha_mix =  0.700 |ddv_scf|^2 =  2.811E-06

      iter #   3 total cpu time :  9707.3 secs   av.it.:  11.5
      thresh= 1.677E-04 alpha_mix =  0.700 |ddv_scf|^2 =  4.366E-08

      iter #   4 total cpu time :  9754.6 secs   av.it.:  12.1
      thresh= 2.090E-05 alpha_mix =  0.700 |ddv_scf|^2 =  1.620E-09

     End of self-consistent calculation

     Convergence has been achieved 


     Representation #  54 mode #  54

     Self-consistent Calculation

      iter #   1 total cpu time :  9781.4 secs   av.it.:   5.8
      thresh= 1.000E-02 alpha_mix =  0.700 |ddv_scf|^2 =  4.425E-07

      iter #   2 total cpu time :  9833.4 secs   av.it.:  13.3
      thresh= 6.652E-05 alpha_mix =  0.700 |ddv_scf|^2 =  1.417E-06

      iter #   3 total cpu time :  9879.8 secs   av.it.:  11.6
      thresh= 1.191E-04 alpha_mix =  0.700 |ddv_scf|^2 =  8.262E-08

      iter #   4 total cpu time :  9920.4 secs   av.it.:  11.9
      thresh= 2.874E-05 alpha_mix =  0.700 |ddv_scf|^2 =  1.687E-09

     End of self-consistent calculation

     Convergence has been achieved 


     Representation #  55 mode #  55

     Self-consistent Calculation

      iter #   1 total cpu time :  9945.6 secs   av.it.:   4.9
      thresh= 1.000E-02 alpha_mix =  0.700 |ddv_scf|^2 =  7.067E-07

      iter #   2 total cpu time : 10020.5 secs   av.it.:  13.5
      thresh= 8.406E-05 alpha_mix =  0.700 |ddv_scf|^2 =  4.470E-06

      iter #   3 total cpu time : 10072.8 secs   av.it.:  11.5
      thresh= 2.114E-04 alpha_mix =  0.700 |ddv_scf|^2 =  2.363E-08

      iter #   4 total cpu time : 10124.4 secs   av.it.:  12.2
      thresh= 1.537E-05 alpha_mix =  0.700 |ddv_scf|^2 =  1.247E-09

     End of self-consistent calculation

     Convergence has been achieved 


     Representation #  56 mode #  56

     Self-consistent Calculation

      iter #   1 total cpu time : 10147.3 secs   av.it.:   4.6
      thresh= 1.000E-02 alpha_mix =  0.700 |ddv_scf|^2 =  4.132E-07

      iter #   2 total cpu time : 10197.6 secs   av.it.:  13.4
      thresh= 6.428E-05 alpha_mix =  0.700 |ddv_scf|^2 =  2.400E-06

      iter #   3 total cpu time : 10239.3 secs   av.it.:  11.4
      thresh= 1.549E-04 alpha_mix =  0.700 |ddv_scf|^2 =  1.599E-08

      iter #   4 total cpu time : 10283.3 secs   av.it.:  12.4
      thresh= 1.265E-05 alpha_mix =  0.700 |ddv_scf|^2 =  1.894E-09

     End of self-consistent calculation

     Convergence has been achieved 


     Representation #  57 mode #  57

     Self-consistent Calculation

      iter #   1 total cpu time : 10308.4 secs   av.it.:   4.5
      thresh= 1.000E-02 alpha_mix =  0.700 |ddv_scf|^2 =  1.612E-07

      iter #   2 total cpu time : 10363.5 secs   av.it.:  13.1
      thresh= 4.015E-05 alpha_mix =  0.700 |ddv_scf|^2 =  5.137E-07

      iter #   3 total cpu time : 10408.0 secs   av.it.:  11.5
      thresh= 7.167E-05 alpha_mix =  0.700 |ddv_scf|^2 =  3.002E-08

      iter #   4 total cpu time : 10459.2 secs   av.it.:  12.1
      thresh= 1.733E-05 alpha_mix =  0.700 |ddv_scf|^2 =  2.099E-09

     End of self-consistent calculation

     Convergence has been achieved 


     Representation #  58 mode #  58

     Self-consistent Calculation

      iter #   1 total cpu time : 10481.4 secs   av.it.:   4.6
      thresh= 1.000E-02 alpha_mix =  0.700 |ddv_scf|^2 =  1.739E-07

      iter #   2 total cpu time : 10570.2 secs   av.it.:  13.3
      thresh= 4.170E-05 alpha_mix =  0.700 |ddv_scf|^2 =  5.843E-07

      iter #   3 total cpu time : 10612.9 secs   av.it.:  11.7
      thresh= 7.644E-05 alpha_mix =  0.700 |ddv_scf|^2 =  3.480E-08

      iter #   4 total cpu time : 10660.4 secs   av.it.:  12.0
      thresh= 1.865E-05 alpha_mix =  0.700 |ddv_scf|^2 =  1.710E-09

     End of self-consistent calculation

     Convergence has been achieved 


     Representation #  59 mode #  59

     Self-consistent Calculation

      iter #   1 total cpu time : 10686.1 secs   av.it.:   4.6
      thresh= 1.000E-02 alpha_mix =  0.700 |ddv_scf|^2 =  1.541E-07

      iter #   2 total cpu time : 10748.0 secs   av.it.:  13.2
      thresh= 3.925E-05 alpha_mix =  0.700 |ddv_scf|^2 =  2.600E-07

      iter #   3 total cpu time : 10796.0 secs   av.it.:  12.0
      thresh= 5.099E-05 alpha_mix =  0.700 |ddv_scf|^2 =  2.659E-08

      iter #   4 total cpu time : 10852.7 secs   av.it.:  12.0
      thresh= 1.631E-05 alpha_mix =  0.700 |ddv_scf|^2 =  3.270E-09

     End of self-consistent calculation

     Convergence has been achieved 


     Representation #  60 mode #  60

     Self-consistent Calculation

      iter #   1 total cpu time : 10888.7 secs   av.it.:   4.6
      thresh= 1.000E-02 alpha_mix =  0.700 |ddv_scf|^2 =  2.377E-07

      iter #   2 total cpu time : 10934.0 secs   av.it.:  13.4
      thresh= 4.876E-05 alpha_mix =  0.700 |ddv_scf|^2 =  9.682E-07

      iter #   3 total cpu time : 10973.3 secs   av.it.:  11.7
      thresh= 9.840E-05 alpha_mix =  0.700 |ddv_scf|^2 =  4.084E-08

      iter #   4 total cpu time : 11012.7 secs   av.it.:  12.0
      thresh= 2.021E-05 alpha_mix =  0.700 |ddv_scf|^2 =  1.240E-09

     End of self-consistent calculation

     Convergence has been achieved 
 
     Number of q in the star =   12
     List of q in the star:
          1   0.125000000   0.216506351   0.084359808
          2  -0.125000000   0.216506351  -0.084359808
          3   0.125000000  -0.216506351  -0.084359808
          4  -0.125000000   0.216506351   0.084359808
          5   0.250000000  -0.000000000   0.084359808
          6  -0.250000000   0.000000000   0.084359808
          7   0.125000000  -0.216506351   0.084359808
          8  -0.125000000  -0.216506351  -0.084359808
          9   0.250000000   0.000000000  -0.084359808
         10  -0.250000000   0.000000000  -0.084359808
         11   0.125000000   0.216506351  -0.084359808
         12  -0.125000000  -0.216506351   0.084359808

     Diagonalizing the dynamical matrix

     q = (    0.125000000   0.216506351   0.084359808 ) 

 **************************************************************************
     freq (    1) =     -22.415307 [THz] =    -747.694146 [cm-1]
     freq (    2) =       3.038716 [THz] =     101.360659 [cm-1]
     freq (    3) =       3.387492 [THz] =     112.994573 [cm-1]
     freq (    4) =       5.012574 [THz] =     167.201470 [cm-1]
     freq (    5) =       5.141777 [THz] =     171.511229 [cm-1]
     freq (    6) =       5.430104 [THz] =     181.128783 [cm-1]
     freq (    7) =       6.769471 [THz] =     225.805239 [cm-1]
     freq (    8) =      20.922172 [THz] =     697.888539 [cm-1]
     freq (    9) =      24.692366 [THz] =     823.648665 [cm-1]
     freq (   10) =      25.117104 [THz] =     837.816394 [cm-1]
     freq (   11) =      26.917511 [THz] =     897.871519 [cm-1]
     freq (   12) =      28.044728 [THz] =     935.471419 [cm-1]
     freq (   13) =      30.068270 [THz] =    1002.969534 [cm-1]
     freq (   14) =      30.716270 [THz] =    1024.584477 [cm-1]
     freq (   15) =      31.053895 [THz] =    1035.846430 [cm-1]
     freq (   16) =      31.087559 [THz] =    1036.969340 [cm-1]
     freq (   17) =      33.372807 [THz] =    1113.197018 [cm-1]
     freq (   18) =      33.759695 [THz] =    1126.102214 [cm-1]
     freq (   19) =      34.164806 [THz] =    1139.615277 [cm-1]
     freq (   20) =      35.177578 [THz] =    1173.397687 [cm-1]
     freq (   21) =      35.279256 [THz] =    1176.789296 [cm-1]
     freq (   22) =      36.185874 [THz] =    1207.030845 [cm-1]
     freq (   23) =      36.288880 [THz] =    1210.466731 [cm-1]
     freq (   24) =      37.097976 [THz] =    1237.455265 [cm-1]
     freq (   25) =      37.135538 [THz] =    1238.708202 [cm-1]
     freq (   26) =      39.799965 [THz] =    1327.583935 [cm-1]
     freq (   27) =      40.026049 [THz] =    1335.125296 [cm-1]
     freq (   28) =      41.933210 [THz] =    1398.741327 [cm-1]
     freq (   29) =      43.376607 [THz] =    1446.887856 [cm-1]
     freq (   30) =      43.872917 [THz] =    1463.442981 [cm-1]
     freq (   31) =      44.048665 [THz] =    1469.305309 [cm-1]
     freq (   32) =      44.061467 [THz] =    1469.732323 [cm-1]
     freq (   33) =      44.174898 [THz] =    1473.515988 [cm-1]
     freq (   34) =      44.320897 [THz] =    1478.385997 [cm-1]
     freq (   35) =      44.705232 [THz] =    1491.206020 [cm-1]
     freq (   36) =      44.989962 [THz] =    1500.703591 [cm-1]
     freq (   37) =      45.312376 [THz] =    1511.458163 [cm-1]
     freq (   38) =      45.656465 [THz] =    1522.935730 [cm-1]
     freq (   39) =      46.787289 [THz] =    1560.655967 [cm-1]
     freq (   40) =      46.979122 [THz] =    1567.054832 [cm-1]
     freq (   41) =      47.540410 [THz] =    1585.777371 [cm-1]
     freq (   42) =      47.613619 [THz] =    1588.219370 [cm-1]
     freq (   43) =      47.967855 [THz] =    1600.035412 [cm-1]
     freq (   44) =      48.203387 [THz] =    1607.891901 [cm-1]
     freq (   45) =      48.915638 [THz] =    1631.650069 [cm-1]
     freq (   46) =      49.236043 [THz] =    1642.337609 [cm-1]
     freq (   47) =      49.920678 [THz] =    1665.174573 [cm-1]
     freq (   48) =      50.649206 [THz] =    1689.475662 [cm-1]
     freq (   49) =      51.068985 [THz] =    1703.477971 [cm-1]
     freq (   50) =      51.828845 [THz] =    1728.824187 [cm-1]
     freq (   51) =      52.709492 [THz] =    1758.199406 [cm-1]
     freq (   52) =      53.046291 [THz] =    1769.433809 [cm-1]
     freq (   53) =      53.394013 [THz] =    1781.032555 [cm-1]
     freq (   54) =      53.636748 [THz] =    1789.129318 [cm-1]
     freq (   55) =      55.041281 [THz] =    1835.979499 [cm-1]
     freq (   56) =      55.065197 [THz] =    1836.777262 [cm-1]
     freq (   57) =      55.963294 [THz] =    1866.734541 [cm-1]
     freq (   58) =      56.640602 [THz] =    1889.327106 [cm-1]
     freq (   59) =      57.253634 [THz] =    1909.775664 [cm-1]
     freq (   60) =      58.128585 [THz] =    1938.960878 [cm-1]
 **************************************************************************

     Mode symmetry, C_s (m)     point group:

     freq (   1-   1) =       -747.7  [cm-1]   --> A''                
     freq (   2-   2) =        101.4  [cm-1]   --> A'                 
     freq (   3-   3) =        113.0  [cm-1]   --> A''                
     freq (   4-   4) =        167.2  [cm-1]   --> A'                 
     freq (   5-   5) =        171.5  [cm-1]   --> A''                
     freq (   6-   6) =        181.1  [cm-1]   --> A'                 
     freq (   7-   7) =        225.8  [cm-1]   --> A''                
     freq (   8-   8) =        697.9  [cm-1]   --> A'                 
     freq (   9-   9) =        823.6  [cm-1]   --> A''                
     freq (  10-  10) =        837.8  [cm-1]   --> A'                 
     freq (  11-  11) =        897.9  [cm-1]   --> A'                 
     freq (  12-  12) =        935.5  [cm-1]   --> A''                
     freq (  13-  13) =       1003.0  [cm-1]   --> A''                
     freq (  14-  14) =       1024.6  [cm-1]   --> A'                 
     freq (  15-  15) =       1035.8  [cm-1]   --> A'                 
     freq (  16-  16) =       1037.0  [cm-1]   --> A''                
     freq (  17-  17) =       1113.2  [cm-1]   --> A''                
     freq (  18-  18) =       1126.1  [cm-1]   --> A'                 
     freq (  19-  19) =       1139.6  [cm-1]   --> A'                 
     freq (  20-  20) =       1173.4  [cm-1]   --> A'                 
     freq (  21-  21) =       1176.8  [cm-1]   --> A''                
     freq (  22-  22) =       1207.0  [cm-1]   --> A''                
     freq (  23-  23) =       1210.5  [cm-1]   --> A'                 
     freq (  24-  24) =       1237.5  [cm-1]   --> A'                 
     freq (  25-  25) =       1238.7  [cm-1]   --> A''                
     freq (  26-  26) =       1327.6  [cm-1]   --> A''                
     freq (  27-  27) =       1335.1  [cm-1]   --> A''                
     freq (  28-  28) =       1398.7  [cm-1]   --> A'                 
     freq (  29-  29) =       1446.9  [cm-1]   --> A''                
     freq (  30-  30) =       1463.4  [cm-1]   --> A'                 
     freq (  31-  31) =       1469.3  [cm-1]   --> A''                
     freq (  32-  32) =       1469.7  [cm-1]   --> A'                 
     freq (  33-  33) =       1473.5  [cm-1]   --> A''                
     freq (  34-  34) =       1478.4  [cm-1]   --> A''                
     freq (  35-  35) =       1491.2  [cm-1]   --> A''                
     freq (  36-  36) =       1500.7  [cm-1]   --> A'                 
     freq (  37-  37) =       1511.5  [cm-1]   --> A'                 
     freq (  38-  38) =       1522.9  [cm-1]   --> A'                 
     freq (  39-  39) =       1560.7  [cm-1]   --> A''                
     freq (  40-  40) =       1567.1  [cm-1]   --> A'                 
     freq (  41-  41) =       1585.8  [cm-1]   --> A''                
     freq (  42-  42) =       1588.2  [cm-1]   --> A'                 
     freq (  43-  43) =       1600.0  [cm-1]   --> A'                 
     freq (  44-  44) =       1607.9  [cm-1]   --> A''                
     freq (  45-  45) =       1631.7  [cm-1]   --> A'                 
     freq (  46-  46) =       1642.3  [cm-1]   --> A'                 
     freq (  47-  47) =       1665.2  [cm-1]   --> A''                
     freq (  48-  48) =       1689.5  [cm-1]   --> A''                
     freq (  49-  49) =       1703.5  [cm-1]   --> A'                 
     freq (  50-  50) =       1728.8  [cm-1]   --> A''                
     freq (  51-  51) =       1758.2  [cm-1]   --> A'                 
     freq (  52-  52) =       1769.4  [cm-1]   --> A'                 
     freq (  53-  53) =       1781.0  [cm-1]   --> A''                
     freq (  54-  54) =       1789.1  [cm-1]   --> A''                
     freq (  55-  55) =       1836.0  [cm-1]   --> A''                
     freq (  56-  56) =       1836.8  [cm-1]   --> A'                 
     freq (  57-  57) =       1866.7  [cm-1]   --> A''                
     freq (  58-  58) =       1889.3  [cm-1]   --> A'                 
     freq (  59-  59) =       1909.8  [cm-1]   --> A''                
     freq (  60-  60) =       1939.0  [cm-1]   --> A'                 

     Calculation of q =    0.1250000   0.2165064   0.2530794
     [opt_tetra]  Optimized tetrahedron method is used.
 
     Parallelization info
     --------------------
     sticks:   dense  smooth     PW     G-vecs:    dense   smooth      PW
     Min          52      52     15                 2048     2048     343
     Max          54      54     16                 2051     2051     350
     Sum        1045    1045    313                40967    40967    6945
 
     Using Slab Decomposition
 

     Title: 
     Electron-phonon coefficients for Th2H18                                    


     bravais-lattice index     =            4
     lattice parameter (alat)  =       6.9107  a.u.
     unit-cell volume          =     423.5189 (a.u.)^3
     number of atoms/cell      =           20
     number of atomic types    =            2
     number of electrons       =        26.00
     number of Kohn-Sham states=           17
     kinetic-energy cutoff     =      80.0000  Ry
     charge density cutoff     =     320.0000  Ry
     Exchange-correlation= PZ
                           (   1   1   0   0   0   0   0)

     celldm(1)=   6.910708  celldm(2)=   0.000000  celldm(3)=   1.481748
     celldm(4)=   0.000000  celldm(5)=   0.000000  celldm(6)=   0.000000

     crystal axes: (cart. coord. in units of alat)
               a(1) = (   1.000000   0.000000   0.000000 )  
               a(2) = (  -0.500000   0.866025   0.000000 )  
               a(3) = (   0.000000   0.000000   1.481748 )  

     reciprocal axes: (cart. coord. in units 2 pi/alat)
               b(1) = (  1.000000  0.577350  0.000000 )  
               b(2) = (  0.000000  1.154701  0.000000 )  
               b(3) = (  0.000000  0.000000  0.674878 )  


     PseudoPot. # 1 for H  read from file:
     ./H.UPF
     MD5 check sum: df8e43189db5a2d7f03d0dd74d71ce72
     Pseudo is Norm-conserving, Zval =  1.0
     Generated in analytical, separable form
     Using radial grid of  929 points,  0 beta functions with: 

     PseudoPot. # 2 for Th read from file:
     ./Th.UPF
     MD5 check sum: a439cebac19eeec3fe133fa10c950477
     Pseudo is Norm-conserving + core correction, Zval =  4.0
     Generated using "atomic" code by A. Dal Corso  v.5.0.99 svn rev. 10869
     Using radial grid of 1289 points,  3 beta functions with: 
                l(1) =   1
                l(2) =   2
                l(3) =   3

     atomic species   valence    mass     pseudopotential
        H              1.00     1.00794     H ( 1.00)
        Th             4.00   232.03806     Th( 1.00)

     24 Sym. Ops., with inversion, found



   Cartesian axes

     site n.     atom                  positions (alat units)
         1           Th  tau(   1) = (   0.5000000   0.2886751   1.1113112  )
         2           Th  tau(   2) = (   0.0000000   0.5773503   0.3704371  )
         3           H   tau(   3) = (   0.0000000   0.0000000   0.3704371  )
         4           H   tau(   4) = (   0.0000000   0.0000000   1.1113112  )
         5           H   tau(   5) = (   0.5000000   0.2886751   0.2298328  )
         6           H   tau(   6) = (   0.0000000   0.5773503   0.9707069  )
         7           H   tau(   7) = (  -0.0000000   0.5773503   1.2519155  )
         8           H   tau(   8) = (   0.5000000   0.2886751   0.5110414  )
         9           H   tau(   9) = (   0.5000000   0.6095530   0.0932611  )
        10           H   tau(  10) = (   0.2221116   0.1282362   0.0932611  )
        11           H   tau(  11) = (   0.7778884   0.1282362   0.0932611  )
        12           H   tau(  12) = (   0.0000000   0.2564724   0.8341353  )
        13           H   tau(  13) = (   0.2778884   0.7377892   0.8341353  )
        14           H   tau(  14) = (  -0.2778884   0.7377892   0.8341353  )
        15           H   tau(  15) = (   0.2778884   0.7377892   1.3884871  )
        16           H   tau(  16) = (  -0.0000000   0.2564724   1.3884871  )
        17           H   tau(  17) = (  -0.2778884   0.7377892   1.3884871  )
        18           H   tau(  18) = (   0.2221116   0.1282362   0.6476130  )
        19           H   tau(  19) = (   0.5000000   0.6095530   0.6476130  )
        20           H   tau(  20) = (   0.7778884   0.1282362   0.6476130  )

     number of k points=  1872 (tetrahedron method)

     Number of k-points >= 100: set verbosity='high' to print them.

     Dense  grid:    40967 G-vectors     FFT dimensions: (  40,  40,  60)

     Estimated max dynamical RAM per process >       2.79 MB

     Estimated total dynamical RAM >      55.82 MB

     The potential is recalculated from file :
     ./_ph0/Th2H18.q_2/Th2H18.save/charge-density

     Starting wfcs are   50 atomic wfcs

     Band Structure Calculation
     Davidson diagonalization with overlap
     c_bands:  1 eigenvalues not converged
     c_bands:  1 eigenvalues not converged
     c_bands:  1 eigenvalues not converged
     c_bands:  1 eigenvalues not converged
     c_bands:  1 eigenvalues not converged
     c_bands:  1 eigenvalues not converged
     c_bands:  1 eigenvalues not converged
     c_bands:  1 eigenvalues not converged
     c_bands:  1 eigenvalues not converged
     c_bands:  1 eigenvalues not converged
     c_bands:  1 eigenvalues not converged
     c_bands:  1 eigenvalues not converged
     c_bands:  1 eigenvalues not converged
     c_bands:  1 eigenvalues not converged
     c_bands:  1 eigenvalues not converged
     c_bands:  1 eigenvalues not converged
     c_bands:  1 eigenvalues not converged
     c_bands:  1 eigenvalues not converged
     c_bands:  1 eigenvalues not converged
     c_bands:  1 eigenvalues not converged
     c_bands:  1 eigenvalues not converged
     c_bands:  1 eigenvalues not converged
     c_bands:  1 eigenvalues not converged
     c_bands:  1 eigenvalues not converged
     c_bands:  1 eigenvalues not converged
     c_bands:  1 eigenvalues not converged
     c_bands:  1 eigenvalues not converged
     c_bands:  1 eigenvalues not converged
     c_bands:  1 eigenvalues not converged
     c_bands:  1 eigenvalues not converged
     c_bands:  1 eigenvalues not converged
     c_bands:  1 eigenvalues not converged
     c_bands:  1 eigenvalues not converged
     c_bands:  1 eigenvalues not converged
     c_bands:  1 eigenvalues not converged
     c_bands:  1 eigenvalues not converged
     c_bands:  1 eigenvalues not converged
     c_bands:  1 eigenvalues not converged
     c_bands:  1 eigenvalues not converged
     c_bands:  1 eigenvalues not converged
     c_bands:  1 eigenvalues not converged
     c_bands:  1 eigenvalues not converged
     c_bands:  1 eigenvalues not converged
     c_bands:  1 eigenvalues not converged
     c_bands:  1 eigenvalues not converged
     c_bands:  1 eigenvalues not converged
     c_bands:  1 eigenvalues not converged
     c_bands:  1 eigenvalues not converged
     c_bands:  1 eigenvalues not converged
     c_bands:  1 eigenvalues not converged
     c_bands:  1 eigenvalues not converged
     c_bands:  1 eigenvalues not converged
     c_bands:  1 eigenvalues not converged
     c_bands:  1 eigenvalues not converged
     c_bands:  1 eigenvalues not converged
     c_bands:  1 eigenvalues not converged
     c_bands:  1 eigenvalues not converged
     c_bands:  1 eigenvalues not converged
     c_bands:  1 eigenvalues not converged
     c_bands:  1 eigenvalues not converged
     c_bands:  1 eigenvalues not converged
     c_bands:  1 eigenvalues not converged
     c_bands:  1 eigenvalues not converged
     c_bands:  1 eigenvalues not converged
     c_bands:  1 eigenvalues not converged
     c_bands:  1 eigenvalues not converged
     c_bands:  1 eigenvalues not converged
     c_bands:  1 eigenvalues not converged
     c_bands:  1 eigenvalues not converged
     c_bands:  1 eigenvalues not converged
     c_bands:  1 eigenvalues not converged
[...]


     Representation #  49 mode #  49

     Self-consistent Calculation

      iter #   1 total cpu time :167070.4 secs   av.it.:   4.3
      thresh= 1.000E-02 alpha_mix =  0.700 |ddv_scf|^2 =  1.518E-08

      iter #   2 total cpu time :167122.1 secs   av.it.:  13.1
      thresh= 1.232E-05 alpha_mix =  0.700 |ddv_scf|^2 =  1.543E-09

     End of self-consistent calculation

     Convergence has been achieved 


     Representation #  50 mode #  50

     Self-consistent Calculation

      iter #   1 total cpu time :167141.9 secs   av.it.:   4.4
      thresh= 1.000E-02 alpha_mix =  0.700 |ddv_scf|^2 =  6.328E-08

      iter #   2 total cpu time :167187.5 secs   av.it.:  13.0
      thresh= 2.516E-05 alpha_mix =  0.700 |ddv_scf|^2 =  1.295E-08

      iter #   3 total cpu time :167239.8 secs   av.it.:  12.6
      thresh= 1.138E-05 alpha_mix =  0.700 |ddv_scf|^2 =  8.661E-11

     End of self-consistent calculation

     Convergence has been achieved 


     Representation #  51 mode #  51

     Self-consistent Calculation

      iter #   1 total cpu time :167259.3 secs   av.it.:   4.4
      thresh= 1.000E-02 alpha_mix =  0.700 |ddv_scf|^2 =  2.415E-08

      iter #   2 total cpu time :167311.7 secs   av.it.:  13.0
      thresh= 1.554E-05 alpha_mix =  0.700 |ddv_scf|^2 =  2.489E-09

     End of self-consistent calculation

     Convergence has been achieved 


     Representation #  52 mode #  52

     Self-consistent Calculation

      iter #   1 total cpu time :167331.6 secs   av.it.:   4.4
      thresh= 1.000E-02 alpha_mix =  0.700 |ddv_scf|^2 =  6.328E-08

      iter #   2 total cpu time :167376.6 secs   av.it.:  13.0
      thresh= 2.516E-05 alpha_mix =  0.700 |ddv_scf|^2 =  1.295E-08

      iter #   3 total cpu time :167433.5 secs   av.it.:  12.6
      thresh= 1.138E-05 alpha_mix =  0.700 |ddv_scf|^2 =  8.661E-11

     End of self-consistent calculation

     Convergence has been achieved 


     Representation #  53 mode #  53

     Self-consistent Calculation

      iter #   1 total cpu time :167456.7 secs   av.it.:   4.6
      thresh= 1.000E-02 alpha_mix =  0.700 |ddv_scf|^2 =  7.572E-08

      iter #   2 total cpu time :167515.4 secs   av.it.:  13.0
      thresh= 2.752E-05 alpha_mix =  0.700 |ddv_scf|^2 =  1.655E-08

      iter #   3 total cpu time :167577.8 secs   av.it.:  12.5
      thresh= 1.286E-05 alpha_mix =  0.700 |ddv_scf|^2 =  7.997E-11

     End of self-consistent calculation

     Convergence has been achieved 


     Representation #  54 mode #  54

     Self-consistent Calculation

      iter #   1 total cpu time :167601.5 secs   av.it.:   5.8
      thresh= 1.000E-02 alpha_mix =  0.700 |ddv_scf|^2 =  8.514E-08

      iter #   2 total cpu time :167649.4 secs   av.it.:  13.4
      thresh= 2.918E-05 alpha_mix =  0.700 |ddv_scf|^2 =  2.337E-08

      iter #   3 total cpu time :167692.7 secs   av.it.:  12.5
      thresh= 1.529E-05 alpha_mix =  0.700 |ddv_scf|^2 =  3.841E-11

     End of self-consistent calculation

     Convergence has been achieved 


     Representation #  55 mode #  55

     Self-consistent Calculation

      iter #   1 total cpu time :167710.1 secs   av.it.:   3.9
      thresh= 1.000E-02 alpha_mix =  0.700 |ddv_scf|^2 =  1.139E-08

      iter #   2 total cpu time :167759.2 secs   av.it.:  13.1
      thresh= 1.067E-05 alpha_mix =  0.700 |ddv_scf|^2 =  1.439E-09

     End of self-consistent calculation

     Convergence has been achieved 


     Representation #  56 mode #  56

     Self-consistent Calculation

      iter #   1 total cpu time :167776.3 secs   av.it.:   4.4
      thresh= 1.000E-02 alpha_mix =  0.700 |ddv_scf|^2 =  2.115E-08

      iter #   2 total cpu time :167820.0 secs   av.it.:  13.0
      thresh= 1.454E-05 alpha_mix =  0.700 |ddv_scf|^2 =  1.994E-09

     End of self-consistent calculation

     Convergence has been achieved 


     Representation #  57 mode #  57

     Self-consistent Calculation

      iter #   1 total cpu time :167849.4 secs   av.it.:   3.7
      thresh= 1.000E-02 alpha_mix =  0.700 |ddv_scf|^2 =  9.137E-09

     End of self-consistent calculation

     Convergence has been achieved 


     Representation #  58 mode #  58

     Self-consistent Calculation

      iter #   1 total cpu time :167880.3 secs   av.it.:   4.6
      thresh= 1.000E-02 alpha_mix =  0.700 |ddv_scf|^2 =  7.603E-08

      iter #   2 total cpu time :167931.9 secs   av.it.:  13.0
      thresh= 2.757E-05 alpha_mix =  0.700 |ddv_scf|^2 =  1.679E-08

      iter #   3 total cpu time :167973.7 secs   av.it.:  12.5
      thresh= 1.296E-05 alpha_mix =  0.700 |ddv_scf|^2 =  7.930E-11

     End of self-consistent calculation

     Convergence has been achieved 


     Representation #  59 mode #  59

     Self-consistent Calculation

      iter #   1 total cpu time :167992.2 secs   av.it.:   4.2
      thresh= 1.000E-02 alpha_mix =  0.700 |ddv_scf|^2 =  1.715E-08

      iter #   2 total cpu time :168038.6 secs   av.it.:  13.1
      thresh= 1.309E-05 alpha_mix =  0.700 |ddv_scf|^2 =  1.528E-09

     End of self-consistent calculation

     Convergence has been achieved 


     Representation #  60 mode #  60

     Self-consistent Calculation

      iter #   1 total cpu time :168061.3 secs   av.it.:   5.8
      thresh= 1.000E-02 alpha_mix =  0.700 |ddv_scf|^2 =  8.513E-08

      iter #   2 total cpu time :168111.1 secs   av.it.:  13.4
      thresh= 2.918E-05 alpha_mix =  0.700 |ddv_scf|^2 =  2.336E-08

      iter #   3 total cpu time :168156.9 secs   av.it.:  12.5
      thresh= 1.529E-05 alpha_mix =  0.700 |ddv_scf|^2 =  3.842E-11

     End of self-consistent calculation

     Convergence has been achieved 
 
     Number of q in the star =   12
     List of q in the star:
          1   0.375000000  -0.216506351   0.253079423
          2  -0.375000000  -0.216506351  -0.253079423
          3   0.375000000   0.216506351  -0.253079423
          4   0.375000000   0.216506351   0.253079423
          5   0.000000000  -0.433012702   0.253079423
          6   0.000000000   0.433012702   0.253079423
          7  -0.375000000  -0.216506351   0.253079423
          8   0.375000000  -0.216506351  -0.253079423
          9   0.000000000   0.433012702  -0.253079423
         10   0.000000000  -0.433012702  -0.253079423
         11  -0.375000000   0.216506351  -0.253079423
         12  -0.375000000   0.216506351   0.253079423

     Diagonalizing the dynamical matrix

     q = (    0.375000000  -0.216506351   0.253079423 ) 

 **************************************************************************
     freq (    1) =     -20.919261 [THz] =    -697.791421 [cm-1]
     freq (    2) =      -3.770456 [THz] =    -125.768867 [cm-1]
     freq (    3) =       3.783210 [THz] =     126.194314 [cm-1]
     freq (    4) =       4.472345 [THz] =     149.181369 [cm-1]
     freq (    5) =       4.745059 [THz] =     158.278142 [cm-1]
     freq (    6) =       6.233574 [THz] =     207.929654 [cm-1]
     freq (    7) =       6.754612 [THz] =     225.309590 [cm-1]
     freq (    8) =      11.015708 [THz] =     367.444477 [cm-1]
     freq (    9) =      14.960746 [THz] =     499.036782 [cm-1]
     freq (   10) =      21.458931 [THz] =     715.792891 [cm-1]
     freq (   11) =      22.785152 [THz] =     760.030857 [cm-1]
     freq (   12) =      24.505561 [THz] =     817.417519 [cm-1]
     freq (   13) =      25.224121 [THz] =     841.386126 [cm-1]
     freq (   14) =      27.722016 [THz] =     924.706929 [cm-1]
     freq (   15) =      29.782830 [THz] =     993.448291 [cm-1]
     freq (   16) =      31.100345 [THz] =    1037.395857 [cm-1]
     freq (   17) =      31.636894 [THz] =    1055.293208 [cm-1]
     freq (   18) =      32.711839 [THz] =    1091.149482 [cm-1]
     freq (   19) =      32.941623 [THz] =    1098.814258 [cm-1]
     freq (   20) =      35.007107 [THz] =    1167.711399 [cm-1]
     freq (   21) =      35.297817 [THz] =    1177.408432 [cm-1]
     freq (   22) =      35.590337 [THz] =    1187.165845 [cm-1]
     freq (   23) =      36.438601 [THz] =    1215.460904 [cm-1]
     freq (   24) =      36.446355 [THz] =    1215.719530 [cm-1]
     freq (   25) =      37.678111 [THz] =    1256.806511 [cm-1]
     freq (   26) =      38.867704 [THz] =    1296.487050 [cm-1]
     freq (   27) =      39.048271 [THz] =    1302.510106 [cm-1]
     freq (   28) =      39.916741 [THz] =    1331.479160 [cm-1]
     freq (   29) =      40.901371 [THz] =    1364.322871 [cm-1]
     freq (   30) =      42.895734 [THz] =    1430.847671 [cm-1]
     freq (   31) =      43.303008 [THz] =    1444.432865 [cm-1]
     freq (   32) =      43.754051 [THz] =    1459.478055 [cm-1]
     freq (   33) =      44.235162 [THz] =    1475.526192 [cm-1]
     freq (   34) =      44.239147 [THz] =    1475.659095 [cm-1]
     freq (   35) =      44.584490 [THz] =    1487.178491 [cm-1]
     freq (   36) =      45.203409 [THz] =    1507.823426 [cm-1]
     freq (   37) =      45.386117 [THz] =    1513.917907 [cm-1]
     freq (   38) =      45.480998 [THz] =    1517.082782 [cm-1]
     freq (   39) =      45.645638 [THz] =    1522.574609 [cm-1]
     freq (   40) =      46.238874 [THz] =    1542.362831 [cm-1]
     freq (   41) =      46.699264 [THz] =    1557.719768 [cm-1]
     freq (   42) =      47.053319 [THz] =    1569.529775 [cm-1]
     freq (   43) =      47.524384 [THz] =    1585.242809 [cm-1]
     freq (   44) =      47.836383 [THz] =    1595.649991 [cm-1]
     freq (   45) =      48.625805 [THz] =    1621.982264 [cm-1]
     freq (   46) =      49.964772 [THz] =    1666.645402 [cm-1]
     freq (   47) =      50.266429 [THz] =    1676.707585 [cm-1]
     freq (   48) =      50.471034 [THz] =    1683.532483 [cm-1]
     freq (   49) =      50.700319 [THz] =    1691.180607 [cm-1]
     freq (   50) =      51.888529 [THz] =    1730.815035 [cm-1]
     freq (   51) =      52.226402 [THz] =    1742.085249 [cm-1]
     freq (   52) =      52.451477 [THz] =    1749.592933 [cm-1]
     freq (   53) =      52.722451 [THz] =    1758.631673 [cm-1]
     freq (   54) =      53.075388 [THz] =    1770.404379 [cm-1]
     freq (   55) =      53.521000 [THz] =    1785.268410 [cm-1]
     freq (   56) =      55.119425 [THz] =    1838.586104 [cm-1]
     freq (   57) =      56.661942 [THz] =    1890.038929 [cm-1]
     freq (   58) =      56.729132 [THz] =    1892.280151 [cm-1]
     freq (   59) =      61.435924 [THz] =    2049.281827 [cm-1]
     freq (   60) =      66.109143 [THz] =    2205.163662 [cm-1]
 **************************************************************************

     Mode symmetry, C_s (m)     point group:

     freq (   1-   1) =       -697.8  [cm-1]   --> A'                 
     freq (   2-   2) =       -125.8  [cm-1]   --> A''                
     freq (   3-   3) =        126.2  [cm-1]   --> A'                 
     freq (   4-   4) =        149.2  [cm-1]   --> A'                 
     freq (   5-   5) =        158.3  [cm-1]   --> A''                
     freq (   6-   6) =        207.9  [cm-1]   --> A'                 
     freq (   7-   7) =        225.3  [cm-1]   --> A'                 
     freq (   8-   8) =        367.4  [cm-1]   --> A''                
     freq (   9-   9) =        499.0  [cm-1]   --> A''                
     freq (  10-  10) =        715.8  [cm-1]   --> A'                 
     freq (  11-  11) =        760.0  [cm-1]   --> A''                
     freq (  12-  12) =        817.4  [cm-1]   --> A'                 
     freq (  13-  13) =        841.4  [cm-1]   --> A'                 
     freq (  14-  14) =        924.7  [cm-1]   --> A''                
     freq (  15-  15) =        993.4  [cm-1]   --> A'                 
     freq (  16-  16) =       1037.4  [cm-1]   --> A'                 
     freq (  17-  17) =       1055.3  [cm-1]   --> A'                 
     freq (  18-  18) =       1091.1  [cm-1]   --> A'                 
     freq (  19-  19) =       1098.8  [cm-1]   --> A''                
     freq (  20-  20) =       1167.7  [cm-1]   --> A'                 
     freq (  21-  21) =       1177.4  [cm-1]   --> A''                
     freq (  22-  22) =       1187.2  [cm-1]   --> A''                
     freq (  23-  23) =       1215.5  [cm-1]   --> A''                
     freq (  24-  24) =       1215.7  [cm-1]   --> A'                 
     freq (  25-  25) =       1256.8  [cm-1]   --> A'                 
     freq (  26-  26) =       1296.5  [cm-1]   --> A''                
     freq (  27-  27) =       1302.5  [cm-1]   --> A'                 
     freq (  28-  28) =       1331.5  [cm-1]   --> A'                 
     freq (  29-  29) =       1364.3  [cm-1]   --> A''                
     freq (  30-  30) =       1430.8  [cm-1]   --> A'                 
     freq (  31-  31) =       1444.4  [cm-1]   --> A'                 
     freq (  32-  32) =       1459.5  [cm-1]   --> A''                
     freq (  33-  33) =       1475.5  [cm-1]   --> A'                 
     freq (  34-  34) =       1475.7  [cm-1]   --> A'                 
     freq (  35-  35) =       1487.2  [cm-1]   --> A''                
     freq (  36-  36) =       1507.8  [cm-1]   --> A''                
     freq (  37-  37) =       1513.9  [cm-1]   --> A'                 
     freq (  38-  38) =       1517.1  [cm-1]   --> A''                
     freq (  39-  39) =       1522.6  [cm-1]   --> A'                 
     freq (  40-  40) =       1542.4  [cm-1]   --> A''                
     freq (  41-  41) =       1557.7  [cm-1]   --> A''                
     freq (  42-  42) =       1569.5  [cm-1]   --> A'                 
     freq (  43-  43) =       1585.2  [cm-1]   --> A'                 
     freq (  44-  44) =       1595.6  [cm-1]   --> A'                 
     freq (  45-  45) =       1622.0  [cm-1]   --> A'                 
     freq (  46-  46) =       1666.6  [cm-1]   --> A'                 
     freq (  47-  47) =       1676.7  [cm-1]   --> A''                
     freq (  48-  48) =       1683.5  [cm-1]   --> A'                 
     freq (  49-  49) =       1691.2  [cm-1]   --> A'                 
     freq (  50-  50) =       1730.8  [cm-1]   --> A'                 
     freq (  51-  51) =       1742.1  [cm-1]   --> A'                 
     freq (  52-  52) =       1749.6  [cm-1]   --> A''                
     freq (  53-  53) =       1758.6  [cm-1]   --> A''                
     freq (  54-  54) =       1770.4  [cm-1]   --> A''                
     freq (  55-  55) =       1785.3  [cm-1]   --> A'                 
     freq (  56-  56) =       1838.6  [cm-1]   --> A'                 
     freq (  57-  57) =       1890.0  [cm-1]   --> A'                 
     freq (  58-  58) =       1892.3  [cm-1]   --> A''                
     freq (  59-  59) =       2049.3  [cm-1]   --> A''                
     freq (  60-  60) =       2205.2  [cm-1]   --> A'                 
 
     init_run     :      1.09s CPU      1.20s WALL (      12 calls)
     electrons    :   4819.93s CPU   5050.14s WALL (      12 calls)

     Called by init_run:
     wfcinit      :      0.00s CPU      0.06s WALL (      12 calls)
     potinit      :      0.01s CPU      0.03s WALL (      12 calls)
     hinit0       :      0.32s CPU      0.33s WALL (      12 calls)

     Called by electrons:
     c_bands      :   4808.05s CPU   5038.23s WALL (      12 calls)
     v_of_rho     :      0.01s CPU      0.01s WALL (      13 calls)

     Called by c_bands:
     init_us_2    :    669.51s CPU    725.99s WALL ( 5602680 calls)
     init_us_2:cp :    656.56s CPU    713.18s WALL ( 5602680 calls)
     cegterg      :   4227.86s CPU   4345.57s WALL (  113464 calls)

     Called by *egterg:
     cdiaghg      :   1768.40s CPU   1806.56s WALL ( 2051151 calls)
     h_psi        :  95453.86s CPU  99971.53s WALL (74051151 calls)
     g_psi        :     15.06s CPU     15.40s WALL ( 2022351 calls)

     Called by h_psi:
     h_psi:calbec :   4864.77s CPU   5087.87s WALL (74051151 calls)
     vloc_psi     :  88108.79s CPU  92279.02s WALL (74051151 calls)
     add_vuspsi   :   1788.21s CPU   1881.17s WALL (74051151 calls)

     General routines
     calbec       :   7479.37s CPU   7835.31s WALL (******** calls)
     fft          :      7.42s CPU      8.35s WALL (   56504 calls)
     ffts         :    427.92s CPU    438.26s WALL (  907200 calls)
     fftw         : 120858.61s CPU 125955.63s WALL (******** calls)
     davcio       :    753.29s CPU   4321.45s WALL (20904126 calls)
 
     Parallel routines
 
     PHONON       :   1d19h29m CPU   1d22h42m WALL

     INITIALIZATION: 
     phq_setup    :      1.53s CPU      3.48s WALL (      12 calls)
     phq_init     :     33.14s CPU     34.71s WALL (      12 calls)
 
     phq_init     :     33.14s CPU     34.71s WALL (      12 calls)
     set_drhoc    :      0.86s CPU      0.86s WALL (      36 calls)
     init_vloc    :      0.13s CPU      0.13s WALL (      13 calls)
     init_us_1    :      0.08s CPU      0.08s WALL (      13 calls)
     init_us_2    :    669.51s CPU    725.99s WALL ( 5602680 calls)
 
     DYNAMICAL MATRIX:
     dynmat0      :     26.66s CPU     27.25s WALL (      12 calls)
     phqscf       : 151722.73s CPU 163037.36s WALL (      12 calls)
     dynmatrix    :      1.03s CPU      1.92s WALL (      12 calls)
 
     phqscf       : 151722.73s CPU 163037.36s WALL (      12 calls)
     solve_linter : 151306.39s CPU 162351.79s WALL (     720 calls)
     drhodv       :    414.05s CPU    439.00s WALL (     720 calls)
 
     dynmat0      :     26.66s CPU     27.25s WALL (      12 calls)
     dynmat_us    :     24.90s CPU     25.40s WALL (      12 calls)
     d2ionq       :      0.82s CPU      0.83s WALL (      12 calls)
     dynmatcc     :      0.89s CPU      0.89s WALL (      12 calls)
 
     dynmat_us    :     24.90s CPU     25.40s WALL (      12 calls)
 
     phqscf       : 151722.73s CPU 163037.36s WALL (      12 calls)
     solve_linter : 151306.39s CPU 162351.79s WALL (     720 calls)
 
     solve_linter : 151306.39s CPU 162351.79s WALL (     720 calls)
     dvqpsi_us    :   2476.49s CPU   2619.97s WALL (  864000 calls)
     sth_kernel   : 148477.56s CPU 158179.16s WALL (    3127 calls)
     apply_dpot_b :   6600.44s CPU   7127.22s WALL ( 2953080 calls)
     ortho        :    443.16s CPU    472.90s WALL ( 3817080 calls)
     cgsolve      : 105097.60s CPU 110101.81s WALL ( 3817080 calls)
     incdrhoscf   :  34836.94s CPU  35714.78s WALL ( 3817080 calls)
     dv_of_drho   :      0.66s CPU      1.08s WALL (    3127 calls)
     mix_pot      :     72.04s CPU    327.82s WALL (    3127 calls)
     psymdvscf    :     17.93s CPU     18.13s WALL (    2003 calls)
 
     dvqpsi_us    :   2476.49s CPU   2619.97s WALL (  864000 calls)
     dvqpsi_us_on :    198.93s CPU    206.87s WALL (  864000 calls)
 
     cgsolve      : 105097.60s CPU 110101.81s WALL ( 3817080 calls)
     ch_psi       : 101665.48s CPU 106492.06s WALL (71886536 calls)
 
     ch_psi       : 101665.48s CPU 106492.06s WALL (71886536 calls)
     h_psi        :  95453.86s CPU  99971.53s WALL (74051151 calls)
     last         :   7212.28s CPU   7556.73s WALL (71886536 calls)
 
     h_psi        :  95453.86s CPU  99971.53s WALL (74051151 calls)
     add_vuspsi   :   1788.21s CPU   1881.17s WALL (74051151 calls)
 
     incdrhoscf   :  34836.94s CPU  35714.78s WALL ( 3817080 calls)
 
 
      General routines
     calbec       :   7479.37s CPU   7835.31s WALL (******** calls)
     fft          :      7.42s CPU      8.35s WALL (   56504 calls)
     ffts         :    427.92s CPU    438.26s WALL (  907200 calls)
     fftw         : 120858.61s CPU 125955.63s WALL (******** calls)
     davcio       :    753.29s CPU   4321.45s WALL (20904126 calls)
     write_rec    :      3.54s CPU   1146.66s WALL (    3847 calls)
 
 
     PHONON       :   1d19h29m CPU   1d22h42m WALL

 
   This run was terminated on:  23:31:10  27May2022            

=------------------------------------------------------------------------------=
   JOB DONE.
=------------------------------------------------------------------------------=
