
     Program PHONON v.7.0 starts on 31May2022 at  2:27:23 

     This program is part of the open-source Quantum ESPRESSO suite
     for quantum simulation of materials; please cite
         "P. Giannozzi et al., J. Phys.:Condens. Matter 21 395502 (2009);
         "P. Giannozzi et al., J. Phys.:Condens. Matter 29 465901 (2017);
         "P. Giannozzi et al., J. Chem. Phys. 152 154105 (2020);
          URL http://www.quantum-espresso.org", 
     in publications or presentations arising from this work. More details at
     http://www.quantum-espresso.org/quote

     Parallel version (MPI), running on    20 processors

     MPI processes distributed on     1 nodes
     R & G space division:  proc/nbgrp/npool/nimage =      20
     51121 MiB available memory on the printing compute node when the environment starts
 
     Reading input from /cephfs/home/mgrebenyuk/QE/Examples/CaH6/130GPa/2x2x2/ph.in

     Reading xml data from directory:

     ./CaH6.save/

     IMPORTANT: XC functional enforced from input :
     Exchange-correlation= PZ
                           (   1   1   0   0   0   0   0)
     Any further DFT definition will be discarded
     Please, verify this is what you really want

 
     Parallelization info
     --------------------
     sticks:   dense  smooth     PW     G-vecs:    dense   smooth      PW
     Min          34      34     12                  575      575     124
     Max          35      35     13                  578      578     126
     Sum         693     693    249                11537    11537    2491
 
     Using Slab Decomposition
 
     Reading collected, re-writing distributed wavefunctions


     Dynamical matrices for ( 2, 2, 2)  uniform grid of q-points
     With a half shift
     (   4 q-points):
       N         xq(1)         xq(2)         xq(3) 
       1   0.433044223   0.433034963  -0.433045932
       2   0.433043368  -0.000001869  -0.000002724
       3  -0.000001869   0.433017805  -0.000019028
       4  -0.000002724  -0.000019028   0.433024180
     Because shifted q grid is used, q2r will not work !

     Saving dvscf to file. Distribute only q points, not irreducible represetations.

     Calculation of q =    0.4330442   0.4330350  -0.4330459

     Subspace diagonalization in iterative solution of the eigenvalue problem:
     a serial algorithm will be used

     [opt_tetra]  Optimized tetrahedron method is used.
 
     Parallelization info
     --------------------
     sticks:   dense  smooth     PW     G-vecs:    dense   smooth      PW
     Min          34      34     13                  575      575     138
     Max          35      35     14                  578      578     141
     Sum         693     693    265                11537    11537    2779
 
     Using Slab Decomposition
 

     Title: 
     Electron-phonon coefficients for CaH6                                      


     bravais-lattice index     =            0
     lattice parameter (alat)  =       5.3806  a.u.
     unit-cell volume          =     119.8986 (a.u.)^3
     number of atoms/cell      =            7
     number of atomic types    =            2
     number of electrons       =         8.00
     number of Kohn-Sham states=            8
     kinetic-energy cutoff     =      80.0000  Ry
     charge density cutoff     =     320.0000  Ry
     Exchange-correlation= PZ
                           (   1   1   0   0   0   0   0)

     celldm(1)=   5.380563  celldm(2)=   0.000000  celldm(3)=   0.000000
     celldm(4)=   0.000000  celldm(5)=   0.000000  celldm(6)=   0.000000

     crystal axes: (cart. coord. in units of alat)
               a(1) = (   0.577316   0.577371   0.577364 )  
               a(2) = (   0.577303  -0.577366  -0.577357 )  
               a(3) = (  -0.577311   0.577316  -0.577313 )  

     reciprocal axes: (cart. coord. in units 2 pi/alat)
               b(1) = (  0.866083  0.866032 -0.000044 )  
               b(2) = (  0.866092  0.000034 -0.866054 )  
               b(3) = (  0.000002  0.866074 -0.866086 )  


     PseudoPot. # 1 for H  read from file:
     ./H.UPF
     MD5 check sum: df8e43189db5a2d7f03d0dd74d71ce72
     Pseudo is Norm-conserving, Zval =  1.0
     Generated in analytical, separable form
     Using radial grid of  929 points,  0 beta functions with: 

     PseudoPot. # 2 for Ca read from file:
     ./Ca.UPF
     MD5 check sum: 3d0b95105a6fbfe7d4b72bf2bbe3cdff
     Pseudo is Norm-conserving, Zval =  2.0
     Generated in analytical, separable form
     Using radial grid of 1169 points,  6 beta functions with: 
                l(1) =   0
                l(2) =   0
                l(3) =   0
                l(4) =   1
                l(5) =   1
                l(6) =   2

     atomic species   valence    mass     pseudopotential
        H              1.00     1.00794     H ( 1.00)
        Ca             2.00    40.07800     Ca( 1.00)

      2 Sym. Ops., with inversion, found



   Cartesian axes

     site n.     atom                  positions (alat units)
         1           Ca  tau(   1) = (   0.0000004   0.0000001  -0.0000001  )
         2           H   tau(   2) = (   0.2886511  -0.0000241  -0.5773319  )
         3           H   tau(   3) = (   0.2886569   0.5773448   0.0000260  )
         4           H   tau(   4) = (   0.5773109   0.2886738   0.0000092  )
         5           H   tau(   5) = (  -0.0000027   0.2886468  -0.5773151  )
         6           H   tau(   6) = (   0.5773062  -0.0000030  -0.2886636  )
         7           H   tau(   7) = (   0.0000020   0.5773234  -0.2886424  )

     number of k points=  1024 (tetrahedron method)

     Number of k-points >= 100: set verbosity='high' to print them.

     Dense  grid:    11537 G-vectors     FFT dimensions: (  32,  32,  32)

     Estimated max dynamical RAM per process >       3.40 MB

     Estimated total dynamical RAM >      67.94 MB

     The potential is recalculated from file :
     ./_ph0/CaH6.q_1/CaH6.save/charge-density

     Starting wfcs are    6 atomic +    2 random wfcs

     Band Structure Calculation
     Davidson diagonalization with overlap

     ethr =  1.25E-10,  avg # of iterations = 21.6

     total cpu time spent up to now is       19.2 secs

     End of band structure calculation

     Number of k-points >= 100: set verbosity='high' to print the bands.

     the Fermi energy is    10.4218 ev

     Writing config to output data dir ./_ph0/CaH6.q_1/CaH6.save/
 
     [dfpt_tetra]  Dos(E_F)[/Ry] :   0.6546949E+01

     Electron-phonon coefficients for CaH6                                      

     bravais-lattice index     =            0
     lattice parameter (alat)  =       5.3806  a.u.
     unit-cell volume          =     119.8986 (a.u.)^3
     number of atoms/cell      =            7
     number of atomic types    =            2
     kinetic-energy cut-off    =      80.0000  Ry
     charge density cut-off    =     320.0000  Ry
     convergence threshold     =      1.0E-08
     beta                      =       0.7000
     number of iterations used =            4
     Exchange-correlation= PZ
                           (   1   1   0   0   0   0   0)


     celldm(1)=    5.38056  celldm(2)=    0.00000  celldm(3)=    0.00000
     celldm(4)=    0.00000  celldm(5)=    0.00000  celldm(6)=    0.00000

     crystal axes: (cart. coord. in units of alat)
               a(1) = (  0.5773  0.5774  0.5774 )  
               a(2) = (  0.5773 -0.5774 -0.5774 )  
               a(3) = ( -0.5773  0.5773 -0.5773 )  

     reciprocal axes: (cart. coord. in units 2 pi/alat)
               b(1) = (  0.8661  0.8660 -0.0000 )  
               b(2) = (  0.8661  0.0000 -0.8661 )  
               b(3) = (  0.0000  0.8661 -0.8661 )  


     Atoms inside the unit cell: 

     Cartesian axes

     site n.  atom      mass           positions (alat units)
        1     Ca  40.0780   tau(    1) = (    0.00000    0.00000   -0.00000  )
        2     H    1.0079   tau(    2) = (    0.28865   -0.00002   -0.57733  )
        3     H    1.0079   tau(    3) = (    0.28866    0.57734    0.00003  )
        4     H    1.0079   tau(    4) = (    0.57731    0.28867    0.00001  )
        5     H    1.0079   tau(    5) = (   -0.00000    0.28865   -0.57732  )
        6     H    1.0079   tau(    6) = (    0.57731   -0.00000   -0.28866  )
        7     H    1.0079   tau(    7) = (    0.00000    0.57732   -0.28864  )

     Computing dynamical matrix for 
                    q = (   0.4330442   0.4330350  -0.4330459 )
 
     No symmetry!

     G cutoff =  234.6636  (    578 G-vectors)     FFT grid: ( 32, 32, 32)
     number of k points=  1024

     PseudoPot. # 1 for H  read from file:
     ./H.UPF
     MD5 check sum: df8e43189db5a2d7f03d0dd74d71ce72
     Pseudo is Norm-conserving, Zval =  1.0
     Generated in analytical, separable form
     Using radial grid of  929 points,  0 beta functions with: 

     PseudoPot. # 2 for Ca read from file:
     ./Ca.UPF
     MD5 check sum: 3d0b95105a6fbfe7d4b72bf2bbe3cdff
     Pseudo is Norm-conserving, Zval =  2.0
     Generated in analytical, separable form
     Using radial grid of 1169 points,  6 beta functions with: 
                l(1) =   0
                l(2) =   0
                l(3) =   0
                l(4) =   1
                l(5) =   1
                l(6) =   2

     Mode symmetry, C_1 (1)     point group:


     Atomic displacements:
     There are   21 irreducible representations

     Representation     1      1 modes -  To be done

     Representation     2      1 modes -  To be done

     Representation     3      1 modes -  To be done

     Representation     4      1 modes -  To be done

     Representation     5      1 modes -  To be done

     Representation     6      1 modes -  To be done

     Representation     7      1 modes -  To be done

     Representation     8      1 modes -  To be done

     Representation     9      1 modes -  To be done

     Representation    10      1 modes -  To be done

     Representation    11      1 modes -  To be done

     Representation    12      1 modes -  To be done

     Representation    13      1 modes -  To be done

     Representation    14      1 modes -  To be done

     Representation    15      1 modes -  To be done

     Representation    16      1 modes -  To be done

     Representation    17      1 modes -  To be done

     Representation    18      1 modes -  To be done

     Representation    19      1 modes -  To be done

     Representation    20      1 modes -  To be done

     Representation    21      1 modes -  To be done



     Alpha used in Ewald sum =   2.8000
     PHONON       :     19.33s CPU     28.01s WALL



     Representation #   1 mode #   1

     Self-consistent Calculation

      iter #   1 total cpu time :    30.5 secs   av.it.:   3.2
      thresh= 1.000E-02 alpha_mix =  0.700 |ddv_scf|^2 =  1.203E-06

      iter #   2 total cpu time :    34.2 secs   av.it.:   6.3
      thresh= 1.097E-04 alpha_mix =  0.700 |ddv_scf|^2 =  9.578E-07

      iter #   3 total cpu time :    37.8 secs   av.it.:   5.8
      thresh= 9.787E-05 alpha_mix =  0.700 |ddv_scf|^2 =  4.186E-09

     End of self-consistent calculation

     Convergence has been achieved 


     Representation #   2 mode #   2

     Self-consistent Calculation

      iter #   1 total cpu time :    40.4 secs   av.it.:   3.2
      thresh= 1.000E-02 alpha_mix =  0.700 |ddv_scf|^2 =  1.208E-06

      iter #   2 total cpu time :    44.7 secs   av.it.:   6.2
      thresh= 1.099E-04 alpha_mix =  0.700 |ddv_scf|^2 =  9.523E-07

      iter #   3 total cpu time :    48.4 secs   av.it.:   5.8
      thresh= 9.759E-05 alpha_mix =  0.700 |ddv_scf|^2 =  4.267E-09

     End of self-consistent calculation

     Convergence has been achieved 


     Representation #   3 mode #   3

     Self-consistent Calculation

      iter #   1 total cpu time :    50.9 secs   av.it.:   3.1
      thresh= 1.000E-02 alpha_mix =  0.700 |ddv_scf|^2 =  1.067E-06

      iter #   2 total cpu time :    54.7 secs   av.it.:   6.2
      thresh= 1.033E-04 alpha_mix =  0.700 |ddv_scf|^2 =  6.723E-07

      iter #   3 total cpu time :    58.2 secs   av.it.:   5.7
      thresh= 8.199E-05 alpha_mix =  0.700 |ddv_scf|^2 =  1.067E-09

     End of self-consistent calculation

     Convergence has been achieved 


     Representation #   4 mode #   4

     Self-consistent Calculation

      iter #   1 total cpu time :    60.9 secs   av.it.:   3.1
      thresh= 1.000E-02 alpha_mix =  0.700 |ddv_scf|^2 =  1.161E-06

      iter #   2 total cpu time :    65.2 secs   av.it.:   6.3
      thresh= 1.078E-04 alpha_mix =  0.700 |ddv_scf|^2 =  8.912E-07

      iter #   3 total cpu time :    68.8 secs   av.it.:   5.8
      thresh= 9.441E-05 alpha_mix =  0.700 |ddv_scf|^2 =  4.135E-09

     End of self-consistent calculation

     Convergence has been achieved 


     Representation #   5 mode #   5

     Self-consistent Calculation

      iter #   1 total cpu time :    71.6 secs   av.it.:   3.4
      thresh= 1.000E-02 alpha_mix =  0.700 |ddv_scf|^2 =  1.694E-06

      iter #   2 total cpu time :    75.3 secs   av.it.:   6.1
      thresh= 1.302E-04 alpha_mix =  0.700 |ddv_scf|^2 =  1.026E-06

      iter #   3 total cpu time :    78.9 secs   av.it.:   5.6
      thresh= 1.013E-04 alpha_mix =  0.700 |ddv_scf|^2 =  1.191E-09

     End of self-consistent calculation

     Convergence has been achieved 


     Representation #   6 mode #   6

     Self-consistent Calculation

      iter #   1 total cpu time :    81.5 secs   av.it.:   3.2
      thresh= 1.000E-02 alpha_mix =  0.700 |ddv_scf|^2 =  1.255E-06

      iter #   2 total cpu time :    85.7 secs   av.it.:   6.3
      thresh= 1.120E-04 alpha_mix =  0.700 |ddv_scf|^2 =  1.119E-06

      iter #   3 total cpu time :    89.4 secs   av.it.:   5.8
      thresh= 1.058E-04 alpha_mix =  0.700 |ddv_scf|^2 =  3.372E-09

     End of self-consistent calculation

     Convergence has been achieved 


     Representation #   7 mode #   7

     Self-consistent Calculation

      iter #   1 total cpu time :    92.0 secs   av.it.:   3.2
      thresh= 1.000E-02 alpha_mix =  0.700 |ddv_scf|^2 =  1.362E-06

      iter #   2 total cpu time :    95.8 secs   av.it.:   6.3
      thresh= 1.167E-04 alpha_mix =  0.700 |ddv_scf|^2 =  1.309E-06

      iter #   3 total cpu time :    99.4 secs   av.it.:   5.7
      thresh= 1.144E-04 alpha_mix =  0.700 |ddv_scf|^2 =  2.058E-09

     End of self-consistent calculation

     Convergence has been achieved 


     Representation #   8 mode #   8

     Self-consistent Calculation

      iter #   1 total cpu time :   102.0 secs   av.it.:   3.1
      thresh= 1.000E-02 alpha_mix =  0.700 |ddv_scf|^2 =  1.087E-06

      iter #   2 total cpu time :   106.2 secs   av.it.:   6.2
      thresh= 1.043E-04 alpha_mix =  0.700 |ddv_scf|^2 =  7.771E-07

      iter #   3 total cpu time :   109.8 secs   av.it.:   5.8
      thresh= 8.815E-05 alpha_mix =  0.700 |ddv_scf|^2 =  3.604E-09

     End of self-consistent calculation

     Convergence has been achieved 


     Representation #   9 mode #   9

     Self-consistent Calculation

      iter #   1 total cpu time :   112.5 secs   av.it.:   3.1
      thresh= 1.000E-02 alpha_mix =  0.700 |ddv_scf|^2 =  1.033E-06

      iter #   2 total cpu time :   116.2 secs   av.it.:   6.2
      thresh= 1.017E-04 alpha_mix =  0.700 |ddv_scf|^2 =  6.688E-07

      iter #   3 total cpu time :   119.8 secs   av.it.:   5.8
      thresh= 8.178E-05 alpha_mix =  0.700 |ddv_scf|^2 =  1.891E-09

     End of self-consistent calculation

     Convergence has been achieved 


     Representation #  10 mode #  10

     Self-consistent Calculation

      iter #   1 total cpu time :   122.4 secs   av.it.:   3.2
      thresh= 1.000E-02 alpha_mix =  0.700 |ddv_scf|^2 =  1.250E-06

      iter #   2 total cpu time :   126.2 secs   av.it.:   6.3
      thresh= 1.118E-04 alpha_mix =  0.700 |ddv_scf|^2 =  1.026E-06

      iter #   3 total cpu time :   130.8 secs   av.it.:   5.8
      thresh= 1.013E-04 alpha_mix =  0.700 |ddv_scf|^2 =  4.267E-09

     End of self-consistent calculation

     Convergence has been achieved 


     Representation #  11 mode #  11

     Self-consistent Calculation

      iter #   1 total cpu time :   133.4 secs   av.it.:   3.1
      thresh= 1.000E-02 alpha_mix =  0.700 |ddv_scf|^2 =  1.043E-06

      iter #   2 total cpu time :   137.1 secs   av.it.:   6.1
      thresh= 1.021E-04 alpha_mix =  0.700 |ddv_scf|^2 =  6.547E-07

      iter #   3 total cpu time :   140.7 secs   av.it.:   5.7
      thresh= 8.091E-05 alpha_mix =  0.700 |ddv_scf|^2 =  1.233E-09

     End of self-consistent calculation

     Convergence has been achieved 


     Representation #  12 mode #  12

     Self-consistent Calculation

      iter #   1 total cpu time :   143.3 secs   av.it.:   3.1
      thresh= 1.000E-02 alpha_mix =  0.700 |ddv_scf|^2 =  1.060E-06

      iter #   2 total cpu time :   147.1 secs   av.it.:   6.2
      thresh= 1.030E-04 alpha_mix =  0.700 |ddv_scf|^2 =  7.572E-07

      iter #   3 total cpu time :   151.2 secs   av.it.:   5.8
      thresh= 8.702E-05 alpha_mix =  0.700 |ddv_scf|^2 =  3.695E-09

     End of self-consistent calculation

     Convergence has been achieved 


     Representation #  13 mode #  13

     Self-consistent Calculation

      iter #   1 total cpu time :   153.8 secs   av.it.:   3.1
      thresh= 1.000E-02 alpha_mix =  0.700 |ddv_scf|^2 =  1.167E-06

      iter #   2 total cpu time :   157.6 secs   av.it.:   6.3
      thresh= 1.080E-04 alpha_mix =  0.700 |ddv_scf|^2 =  9.806E-07

      iter #   3 total cpu time :   161.3 secs   av.it.:   5.8
      thresh= 9.902E-05 alpha_mix =  0.700 |ddv_scf|^2 =  3.908E-09

     End of self-consistent calculation

     Convergence has been achieved 


     Representation #  14 mode #  14

     Self-consistent Calculation

      iter #   1 total cpu time :   164.0 secs   av.it.:   3.4
      thresh= 1.000E-02 alpha_mix =  0.700 |ddv_scf|^2 =  1.682E-06

      iter #   2 total cpu time :   167.8 secs   av.it.:   6.2
      thresh= 1.297E-04 alpha_mix =  0.700 |ddv_scf|^2 =  1.013E-06

      iter #   3 total cpu time :   171.3 secs   av.it.:   5.6
      thresh= 1.007E-04 alpha_mix =  0.700 |ddv_scf|^2 =  1.185E-09

     End of self-consistent calculation

     Convergence has been achieved 


     Representation #  15 mode #  15

     Self-consistent Calculation

      iter #   1 total cpu time :   174.3 secs   av.it.:   3.1
      thresh= 1.000E-02 alpha_mix =  0.700 |ddv_scf|^2 =  9.936E-07

      iter #   2 total cpu time :   178.0 secs   av.it.:   6.1
      thresh= 9.968E-05 alpha_mix =  0.700 |ddv_scf|^2 =  6.148E-07

      iter #   3 total cpu time :   181.6 secs   av.it.:   5.7
      thresh= 7.841E-05 alpha_mix =  0.700 |ddv_scf|^2 =  1.232E-09

     End of self-consistent calculation

     Convergence has been achieved 


     Representation #  16 mode #  16

     Self-consistent Calculation

      iter #   1 total cpu time :   184.3 secs   av.it.:   3.2
      thresh= 1.000E-02 alpha_mix =  0.700 |ddv_scf|^2 =  1.423E-06

      iter #   2 total cpu time :   188.1 secs   av.it.:   6.2
      thresh= 1.193E-04 alpha_mix =  0.700 |ddv_scf|^2 =  1.426E-06

      iter #   3 total cpu time :   191.6 secs   av.it.:   5.7
      thresh= 1.194E-04 alpha_mix =  0.700 |ddv_scf|^2 =  1.053E-09

     End of self-consistent calculation

     Convergence has been achieved 


     Representation #  17 mode #  17

     Self-consistent Calculation

      iter #   1 total cpu time :   194.8 secs   av.it.:   3.2
      thresh= 1.000E-02 alpha_mix =  0.700 |ddv_scf|^2 =  1.299E-06

      iter #   2 total cpu time :   198.6 secs   av.it.:   6.3
      thresh= 1.140E-04 alpha_mix =  0.700 |ddv_scf|^2 =  1.140E-06

      iter #   3 total cpu time :   202.2 secs   av.it.:   5.8
      thresh= 1.068E-04 alpha_mix =  0.700 |ddv_scf|^2 =  3.778E-09

     End of self-consistent calculation

     Convergence has been achieved 


     Representation #  18 mode #  18

     Self-consistent Calculation

      iter #   1 total cpu time :   205.0 secs   av.it.:   3.4
      thresh= 1.000E-02 alpha_mix =  0.700 |ddv_scf|^2 =  1.703E-06

      iter #   2 total cpu time :   208.7 secs   av.it.:   6.1
      thresh= 1.305E-04 alpha_mix =  0.700 |ddv_scf|^2 =  1.035E-06

      iter #   3 total cpu time :   212.2 secs   av.it.:   5.6
      thresh= 1.017E-04 alpha_mix =  0.700 |ddv_scf|^2 =  1.182E-09

     End of self-consistent calculation

     Convergence has been achieved 


     Representation #  19 mode #  19

     Self-consistent Calculation

      iter #   1 total cpu time :   215.2 secs   av.it.:   3.2
      thresh= 1.000E-02 alpha_mix =  0.700 |ddv_scf|^2 =  1.177E-06

      iter #   2 total cpu time :   219.7 secs   av.it.:   6.2
      thresh= 1.085E-04 alpha_mix =  0.700 |ddv_scf|^2 =  8.272E-07

      iter #   3 total cpu time :   223.2 secs   av.it.:   5.8
      thresh= 9.095E-05 alpha_mix =  0.700 |ddv_scf|^2 =  3.166E-09

     End of self-consistent calculation

     Convergence has been achieved 


     Representation #  20 mode #  20

     Self-consistent Calculation

      iter #   1 total cpu time :   225.9 secs   av.it.:   3.2
      thresh= 1.000E-02 alpha_mix =  0.700 |ddv_scf|^2 =  1.202E-06

      iter #   2 total cpu time :   229.6 secs   av.it.:   6.2
      thresh= 1.096E-04 alpha_mix =  0.700 |ddv_scf|^2 =  8.766E-07

      iter #   3 total cpu time :   233.3 secs   av.it.:   5.8
      thresh= 9.363E-05 alpha_mix =  0.700 |ddv_scf|^2 =  3.716E-09

     End of self-consistent calculation

     Convergence has been achieved 


     Representation #  21 mode #  21

     Self-consistent Calculation

      iter #   1 total cpu time :   235.9 secs   av.it.:   3.2
      thresh= 1.000E-02 alpha_mix =  0.700 |ddv_scf|^2 =  1.215E-06

      iter #   2 total cpu time :   240.1 secs   av.it.:   6.3
      thresh= 1.102E-04 alpha_mix =  0.700 |ddv_scf|^2 =  8.718E-07

      iter #   3 total cpu time :   243.7 secs   av.it.:   5.8
      thresh= 9.337E-05 alpha_mix =  0.700 |ddv_scf|^2 =  3.446E-09

     End of self-consistent calculation

     Convergence has been achieved 
 
     Number of q in the star =    2
     List of q in the star:
          1   0.433044223   0.433034963  -0.433045932
          2  -0.433044223  -0.433034963   0.433045932

     Diagonalizing the dynamical matrix

     q = (    0.433044223   0.433034963  -0.433045932 ) 

 **************************************************************************
     freq (    1) =      -4.686136 [THz] =    -156.312661 [cm-1]
     freq (    2) =       5.674081 [THz] =     189.266982 [cm-1]
     freq (    3) =       5.825097 [THz] =     194.304332 [cm-1]
     freq (    4) =       6.102309 [THz] =     203.551123 [cm-1]
     freq (    5) =      17.153198 [THz] =     572.169101 [cm-1]
     freq (    6) =      18.073724 [THz] =     602.874531 [cm-1]
     freq (    7) =      19.507665 [THz] =     650.705663 [cm-1]
     freq (    8) =      19.789441 [THz] =     660.104695 [cm-1]
     freq (    9) =      20.282196 [THz] =     676.541237 [cm-1]
     freq (   10) =      24.865958 [THz] =     829.439084 [cm-1]
     freq (   11) =      25.914493 [THz] =     864.414451 [cm-1]
     freq (   12) =      26.720897 [THz] =     891.313196 [cm-1]
     freq (   13) =      27.229511 [THz] =     908.278724 [cm-1]
     freq (   14) =      28.800051 [THz] =     960.666286 [cm-1]
     freq (   15) =      33.638889 [THz] =    1122.072561 [cm-1]
     freq (   16) =      43.766205 [THz] =    1459.883460 [cm-1]
     freq (   17) =      44.026851 [THz] =    1468.577669 [cm-1]
     freq (   18) =      44.110300 [THz] =    1471.361238 [cm-1]
     freq (   19) =      47.691021 [THz] =    1590.801215 [cm-1]
     freq (   20) =      49.020418 [THz] =    1635.145154 [cm-1]
     freq (   21) =      49.656094 [THz] =    1656.349012 [cm-1]
 **************************************************************************

     Mode symmetry, C_1 (1)     point group:

     freq (   1-   1) =       -156.3  [cm-1]   --> A                  
     freq (   2-   2) =        189.3  [cm-1]   --> A                  
     freq (   3-   3) =        194.3  [cm-1]   --> A                  
     freq (   4-   4) =        203.6  [cm-1]   --> A                  
     freq (   5-   5) =        572.2  [cm-1]   --> A                  
     freq (   6-   6) =        602.9  [cm-1]   --> A                  
     freq (   7-   7) =        650.7  [cm-1]   --> A                  
     freq (   8-   8) =        660.1  [cm-1]   --> A                  
     freq (   9-   9) =        676.5  [cm-1]   --> A                  
     freq (  10-  10) =        829.4  [cm-1]   --> A                  
     freq (  11-  11) =        864.4  [cm-1]   --> A                  
     freq (  12-  12) =        891.3  [cm-1]   --> A                  
     freq (  13-  13) =        908.3  [cm-1]   --> A                  
     freq (  14-  14) =        960.7  [cm-1]   --> A                  
     freq (  15-  15) =       1122.1  [cm-1]   --> A                  
     freq (  16-  16) =       1459.9  [cm-1]   --> A                  
     freq (  17-  17) =       1468.6  [cm-1]   --> A                  
     freq (  18-  18) =       1471.4  [cm-1]   --> A                  
     freq (  19-  19) =       1590.8  [cm-1]   --> A                  
     freq (  20-  20) =       1635.1  [cm-1]   --> A                  
     freq (  21-  21) =       1656.3  [cm-1]   --> A                  

     Calculation of q =    0.4330434  -0.0000019  -0.0000027
     [opt_tetra]  Optimized tetrahedron method is used.
 
     Parallelization info
     --------------------
     sticks:   dense  smooth     PW     G-vecs:    dense   smooth      PW
     Min          34      34     12                  575      575     124
     Max          35      35     13                  578      578     126
     Sum         693     693    249                11537    11537    2491
 
     Using Slab Decomposition
 

     Title: 
     Electron-phonon coefficients for CaH6                                      


     bravais-lattice index     =            0
     lattice parameter (alat)  =       5.3806  a.u.
     unit-cell volume          =     119.8986 (a.u.)^3
     number of atoms/cell      =            7
     number of atomic types    =            2
     number of electrons       =         8.00
     number of Kohn-Sham states=            8
     kinetic-energy cutoff     =      80.0000  Ry
     charge density cutoff     =     320.0000  Ry
     Exchange-correlation= PZ
                           (   1   1   0   0   0   0   0)

     celldm(1)=   5.380563  celldm(2)=   0.000000  celldm(3)=   0.000000
     celldm(4)=   0.000000  celldm(5)=   0.000000  celldm(6)=   0.000000

     crystal axes: (cart. coord. in units of alat)
               a(1) = (   0.577316   0.577371   0.577364 )  
               a(2) = (   0.577303  -0.577366  -0.577357 )  
               a(3) = (  -0.577311   0.577316  -0.577313 )  

     reciprocal axes: (cart. coord. in units 2 pi/alat)
               b(1) = (  0.866083  0.866032 -0.000044 )  
               b(2) = (  0.866092  0.000034 -0.866054 )  
               b(3) = (  0.000002  0.866074 -0.866086 )  


     PseudoPot. # 1 for H  read from file:
     ./H.UPF
     MD5 check sum: df8e43189db5a2d7f03d0dd74d71ce72
     Pseudo is Norm-conserving, Zval =  1.0
     Generated in analytical, separable form
     Using radial grid of  929 points,  0 beta functions with: 

     PseudoPot. # 2 for Ca read from file:
     ./Ca.UPF
     MD5 check sum: 3d0b95105a6fbfe7d4b72bf2bbe3cdff
     Pseudo is Norm-conserving, Zval =  2.0
     Generated in analytical, separable form
     Using radial grid of 1169 points,  6 beta functions with: 
                l(1) =   0
                l(2) =   0
                l(3) =   0
                l(4) =   1
                l(5) =   1
                l(6) =   2

     atomic species   valence    mass     pseudopotential
        H              1.00     1.00794     H ( 1.00)
        Ca             2.00    40.07800     Ca( 1.00)

      2 Sym. Ops., with inversion, found



   Cartesian axes

     site n.     atom                  positions (alat units)
         1           Ca  tau(   1) = (   0.0000004   0.0000001  -0.0000001  )
         2           H   tau(   2) = (   0.2886511  -0.0000241  -0.5773319  )
         3           H   tau(   3) = (   0.2886569   0.5773448   0.0000260  )
         4           H   tau(   4) = (   0.5773109   0.2886738   0.0000092  )
         5           H   tau(   5) = (  -0.0000027   0.2886468  -0.5773151  )
         6           H   tau(   6) = (   0.5773062  -0.0000030  -0.2886636  )
         7           H   tau(   7) = (   0.0000020   0.5773234  -0.2886424  )

     number of k points=  1024 (tetrahedron method)

     Number of k-points >= 100: set verbosity='high' to print them.

     Dense  grid:    11537 G-vectors     FFT dimensions: (  32,  32,  32)

     Estimated max dynamical RAM per process >       3.34 MB

     Estimated total dynamical RAM >      66.75 MB

     The potential is recalculated from file :
     ./_ph0/CaH6.q_2/CaH6.save/charge-density

     Starting wfcs are    6 atomic +    2 random wfcs

     Band Structure Calculation
     Davidson diagonalization with overlap

     ethr =  1.25E-10,  avg # of iterations = 21.5

     total cpu time spent up to now is       38.3 secs

     End of band structure calculation

     Number of k-points >= 100: set verbosity='high' to print the bands.

     the Fermi energy is    10.4218 ev

     Writing config to output data dir ./_ph0/CaH6.q_2/CaH6.save/
 
     [dfpt_tetra]  Dos(E_F)[/Ry] :   0.6546949E+01

     Electron-phonon coefficients for CaH6                                      

     bravais-lattice index     =            0
     lattice parameter (alat)  =       5.3806  a.u.
     unit-cell volume          =     119.8986 (a.u.)^3
     number of atoms/cell      =            7
     number of atomic types    =            2
     kinetic-energy cut-off    =      80.0000  Ry
     charge density cut-off    =     320.0000  Ry
     convergence threshold     =      1.0E-08
     beta                      =       0.7000
     number of iterations used =            4
     Exchange-correlation= PZ
                           (   1   1   0   0   0   0   0)


     celldm(1)=    5.38056  celldm(2)=    0.00000  celldm(3)=    0.00000
     celldm(4)=    0.00000  celldm(5)=    0.00000  celldm(6)=    0.00000

     crystal axes: (cart. coord. in units of alat)
               a(1) = (  0.5773  0.5774  0.5774 )  
               a(2) = (  0.5773 -0.5774 -0.5774 )  
               a(3) = ( -0.5773  0.5773 -0.5773 )  

     reciprocal axes: (cart. coord. in units 2 pi/alat)
               b(1) = (  0.8661  0.8660 -0.0000 )  
               b(2) = (  0.8661  0.0000 -0.8661 )  
               b(3) = (  0.0000  0.8661 -0.8661 )  


     Atoms inside the unit cell: 

     Cartesian axes

     site n.  atom      mass           positions (alat units)
        1     Ca  40.0780   tau(    1) = (    0.00000    0.00000   -0.00000  )
        2     H    1.0079   tau(    2) = (    0.28865   -0.00002   -0.57733  )
        3     H    1.0079   tau(    3) = (    0.28866    0.57734    0.00003  )
        4     H    1.0079   tau(    4) = (    0.57731    0.28867    0.00001  )
        5     H    1.0079   tau(    5) = (   -0.00000    0.28865   -0.57732  )
        6     H    1.0079   tau(    6) = (    0.57731   -0.00000   -0.28866  )
        7     H    1.0079   tau(    7) = (    0.00000    0.57732   -0.28864  )

     Computing dynamical matrix for 
                    q = (   0.4330434  -0.0000019  -0.0000027 )
 
     No symmetry!

     G cutoff =  234.6636  (    578 G-vectors)     FFT grid: ( 32, 32, 32)
     number of k points=  1024

     PseudoPot. # 1 for H  read from file:
     ./H.UPF
     MD5 check sum: df8e43189db5a2d7f03d0dd74d71ce72
     Pseudo is Norm-conserving, Zval =  1.0
     Generated in analytical, separable form
     Using radial grid of  929 points,  0 beta functions with: 

     PseudoPot. # 2 for Ca read from file:
     ./Ca.UPF
     MD5 check sum: 3d0b95105a6fbfe7d4b72bf2bbe3cdff
     Pseudo is Norm-conserving, Zval =  2.0
     Generated in analytical, separable form
     Using radial grid of 1169 points,  6 beta functions with: 
                l(1) =   0
                l(2) =   0
                l(3) =   0
                l(4) =   1
                l(5) =   1
                l(6) =   2

     Mode symmetry, C_1 (1)     point group:


     Atomic displacements:
     There are   21 irreducible representations

     Representation     1      1 modes -  To be done

     Representation     2      1 modes -  To be done

     Representation     3      1 modes -  To be done

     Representation     4      1 modes -  To be done

     Representation     5      1 modes -  To be done

     Representation     6      1 modes -  To be done

     Representation     7      1 modes -  To be done

     Representation     8      1 modes -  To be done

     Representation     9      1 modes -  To be done

     Representation    10      1 modes -  To be done

     Representation    11      1 modes -  To be done

     Representation    12      1 modes -  To be done

     Representation    13      1 modes -  To be done

     Representation    14      1 modes -  To be done

     Representation    15      1 modes -  To be done

     Representation    16      1 modes -  To be done

     Representation    17      1 modes -  To be done

     Representation    18      1 modes -  To be done

     Representation    19      1 modes -  To be done

     Representation    20      1 modes -  To be done

     Representation    21      1 modes -  To be done



     Alpha used in Ewald sum =   2.8000
     PHONON       :   3m48.73s CPU   4m23.39s WALL



     Representation #   1 mode #   1

     Self-consistent Calculation

      iter #   1 total cpu time :   265.9 secs   av.it.:   3.2
      thresh= 1.000E-02 alpha_mix =  0.700 |ddv_scf|^2 =  8.881E-06

      iter #   2 total cpu time :   269.6 secs   av.it.:   6.1
      thresh= 2.980E-04 alpha_mix =  0.700 |ddv_scf|^2 =  1.069E-04

      iter #   3 total cpu time :   272.8 secs   av.it.:   5.0
      thresh= 1.034E-03 alpha_mix =  0.700 |ddv_scf|^2 =  1.226E-08

      iter #   4 total cpu time :   276.7 secs   av.it.:   6.5
      thresh= 1.107E-05 alpha_mix =  0.700 |ddv_scf|^2 =  2.520E-10

     End of self-consistent calculation

     Convergence has been achieved 


     Representation #   2 mode #   2

     Self-consistent Calculation

      iter #   1 total cpu time :   279.4 secs   av.it.:   3.2
      thresh= 1.000E-02 alpha_mix =  0.700 |ddv_scf|^2 =  1.264E-05

      iter #   2 total cpu time :   283.1 secs   av.it.:   6.0
      thresh= 3.556E-04 alpha_mix =  0.700 |ddv_scf|^2 =  1.514E-04

      iter #   3 total cpu time :   286.9 secs   av.it.:   5.0
      thresh= 1.231E-03 alpha_mix =  0.700 |ddv_scf|^2 =  1.673E-08

      iter #   4 total cpu time :   290.7 secs   av.it.:   6.3
      thresh= 1.293E-05 alpha_mix =  0.700 |ddv_scf|^2 =  2.519E-10

     End of self-consistent calculation

     Convergence has been achieved 


     Representation #   3 mode #   3

     Self-consistent Calculation

      iter #   1 total cpu time :   293.3 secs   av.it.:   3.2
      thresh= 1.000E-02 alpha_mix =  0.700 |ddv_scf|^2 =  1.417E-05

      iter #   2 total cpu time :   297.1 secs   av.it.:   6.0
      thresh= 3.765E-04 alpha_mix =  0.700 |ddv_scf|^2 =  1.717E-04

      iter #   3 total cpu time :   300.3 secs   av.it.:   5.0
      thresh= 1.310E-03 alpha_mix =  0.700 |ddv_scf|^2 =  1.004E-08

      iter #   4 total cpu time :   305.8 secs   av.it.:   6.5
      thresh= 1.002E-05 alpha_mix =  0.700 |ddv_scf|^2 =  2.769E-10

     End of self-consistent calculation

     Convergence has been achieved 


     Representation #   4 mode #   4

     Self-consistent Calculation

      iter #   1 total cpu time :   308.5 secs   av.it.:   3.3
      thresh= 1.000E-02 alpha_mix =  0.700 |ddv_scf|^2 =  1.711E-05

      iter #   2 total cpu time :   312.2 secs   av.it.:   6.0
      thresh= 4.136E-04 alpha_mix =  0.700 |ddv_scf|^2 =  2.108E-04

      iter #   3 total cpu time :   315.4 secs   av.it.:   5.0
      thresh= 1.452E-03 alpha_mix =  0.700 |ddv_scf|^2 =  1.300E-08

      iter #   4 total cpu time :   319.3 secs   av.it.:   6.6
      thresh= 1.140E-05 alpha_mix =  0.700 |ddv_scf|^2 =  4.613E-10

     End of self-consistent calculation

     Convergence has been achieved 


     Representation #   5 mode #   5

     Self-consistent Calculation

      iter #   1 total cpu time :   322.1 secs   av.it.:   3.4
      thresh= 1.000E-02 alpha_mix =  0.700 |ddv_scf|^2 =  3.776E-06

      iter #   2 total cpu time :   325.8 secs   av.it.:   6.1
      thresh= 1.943E-04 alpha_mix =  0.700 |ddv_scf|^2 =  4.226E-05

      iter #   3 total cpu time :   329.6 secs   av.it.:   5.0
      thresh= 6.501E-04 alpha_mix =  0.700 |ddv_scf|^2 =  2.810E-08

      iter #   4 total cpu time :   333.2 secs   av.it.:   6.0
      thresh= 1.676E-05 alpha_mix =  0.700 |ddv_scf|^2 =  3.179E-10

     End of self-consistent calculation

     Convergence has been achieved 


     Representation #   6 mode #   6

     Self-consistent Calculation

      iter #   1 total cpu time :   335.8 secs   av.it.:   3.1
      thresh= 1.000E-02 alpha_mix =  0.700 |ddv_scf|^2 =  2.755E-06

      iter #   2 total cpu time :   339.6 secs   av.it.:   6.1
      thresh= 1.660E-04 alpha_mix =  0.700 |ddv_scf|^2 =  3.073E-05

      iter #   3 total cpu time :   342.8 secs   av.it.:   5.0
      thresh= 5.544E-04 alpha_mix =  0.700 |ddv_scf|^2 =  2.065E-08

      iter #   4 total cpu time :   346.5 secs   av.it.:   6.1
      thresh= 1.437E-05 alpha_mix =  0.700 |ddv_scf|^2 =  1.147E-10

     End of self-consistent calculation

     Convergence has been achieved 


     Representation #   7 mode #   7

     Self-consistent Calculation

      iter #   1 total cpu time :   349.7 secs   av.it.:   3.1
      thresh= 1.000E-02 alpha_mix =  0.700 |ddv_scf|^2 =  2.424E-06

      iter #   2 total cpu time :   353.4 secs   av.it.:   6.1
      thresh= 1.557E-04 alpha_mix =  0.700 |ddv_scf|^2 =  2.663E-05

      iter #   3 total cpu time :   356.6 secs   av.it.:   5.0
      thresh= 5.161E-04 alpha_mix =  0.700 |ddv_scf|^2 =  2.114E-08

      iter #   4 total cpu time :   360.3 secs   av.it.:   6.1
      thresh= 1.454E-05 alpha_mix =  0.700 |ddv_scf|^2 =  1.020E-10

     End of self-consistent calculation

     Convergence has been achieved 


     Representation #   8 mode #   8

     Self-consistent Calculation

      iter #   1 total cpu time :   362.9 secs   av.it.:   3.1
      thresh= 1.000E-02 alpha_mix =  0.700 |ddv_scf|^2 =  3.716E-06

      iter #   2 total cpu time :   366.7 secs   av.it.:   6.1
      thresh= 1.928E-04 alpha_mix =  0.700 |ddv_scf|^2 =  4.208E-05

      iter #   3 total cpu time :   369.9 secs   av.it.:   5.0
      thresh= 6.487E-04 alpha_mix =  0.700 |ddv_scf|^2 =  2.450E-08

      iter #   4 total cpu time :   373.7 secs   av.it.:   6.1
      thresh= 1.565E-05 alpha_mix =  0.700 |ddv_scf|^2 =  1.533E-10

     End of self-consistent calculation

     Convergence has been achieved 


     Representation #   9 mode #   9

     Self-consistent Calculation

      iter #   1 total cpu time :   377.4 secs   av.it.:   3.3
      thresh= 1.000E-02 alpha_mix =  0.700 |ddv_scf|^2 =  1.202E-05

      iter #   2 total cpu time :   381.2 secs   av.it.:   6.1
      thresh= 3.467E-04 alpha_mix =  0.700 |ddv_scf|^2 =  1.473E-04

      iter #   3 total cpu time :   384.5 secs   av.it.:   5.0
      thresh= 1.214E-03 alpha_mix =  0.700 |ddv_scf|^2 =  1.187E-08

      iter #   4 total cpu time :   388.4 secs   av.it.:   6.5
      thresh= 1.090E-05 alpha_mix =  0.700 |ddv_scf|^2 =  3.608E-10

     End of self-consistent calculation

     Convergence has been achieved 


     Representation #  10 mode #  10

     Self-consistent Calculation

      iter #   1 total cpu time :   391.0 secs   av.it.:   3.3
      thresh= 1.000E-02 alpha_mix =  0.700 |ddv_scf|^2 =  1.510E-05

      iter #   2 total cpu time :   395.2 secs   av.it.:   6.0
      thresh= 3.886E-04 alpha_mix =  0.700 |ddv_scf|^2 =  1.848E-04

      iter #   3 total cpu time :   398.4 secs   av.it.:   5.0
      thresh= 1.359E-03 alpha_mix =  0.700 |ddv_scf|^2 =  1.185E-08

      iter #   4 total cpu time :   402.4 secs   av.it.:   6.6
      thresh= 1.088E-05 alpha_mix =  0.700 |ddv_scf|^2 =  3.778E-10

     End of self-consistent calculation

     Convergence has been achieved 


     Representation #  11 mode #  11

     Self-consistent Calculation

      iter #   1 total cpu time :   405.0 secs   av.it.:   3.2
      thresh= 1.000E-02 alpha_mix =  0.700 |ddv_scf|^2 =  1.183E-05

      iter #   2 total cpu time :   408.7 secs   av.it.:   6.0
      thresh= 3.439E-04 alpha_mix =  0.700 |ddv_scf|^2 =  1.427E-04

      iter #   3 total cpu time :   411.9 secs   av.it.:   5.0
      thresh= 1.195E-03 alpha_mix =  0.700 |ddv_scf|^2 =  1.012E-08

      iter #   4 total cpu time :   416.4 secs   av.it.:   6.4
      thresh= 1.006E-05 alpha_mix =  0.700 |ddv_scf|^2 =  2.381E-10

     End of self-consistent calculation

     Convergence has been achieved 


     Representation #  12 mode #  12

     Self-consistent Calculation

      iter #   1 total cpu time :   419.1 secs   av.it.:   3.3
      thresh= 1.000E-02 alpha_mix =  0.700 |ddv_scf|^2 =  1.826E-05

      iter #   2 total cpu time :   422.9 secs   av.it.:   6.0
      thresh= 4.273E-04 alpha_mix =  0.700 |ddv_scf|^2 =  2.231E-04

      iter #   3 total cpu time :   426.1 secs   av.it.:   5.0
      thresh= 1.494E-03 alpha_mix =  0.700 |ddv_scf|^2 =  8.819E-09

     End of self-consistent calculation

     Convergence has been achieved 


     Representation #  13 mode #  13

     Self-consistent Calculation

      iter #   1 total cpu time :   428.7 secs   av.it.:   3.2
      thresh= 1.000E-02 alpha_mix =  0.700 |ddv_scf|^2 =  5.145E-06

      iter #   2 total cpu time :   432.5 secs   av.it.:   6.1
      thresh= 2.268E-04 alpha_mix =  0.700 |ddv_scf|^2 =  6.037E-05

      iter #   3 total cpu time :   435.7 secs   av.it.:   5.0
      thresh= 7.770E-04 alpha_mix =  0.700 |ddv_scf|^2 =  1.271E-08

      iter #   4 total cpu time :   439.4 secs   av.it.:   6.2
      thresh= 1.127E-05 alpha_mix =  0.700 |ddv_scf|^2 =  1.219E-10

     End of self-consistent calculation

     Convergence has been achieved 


     Representation #  14 mode #  14

     Self-consistent Calculation

      iter #   1 total cpu time :   442.8 secs   av.it.:   3.7
      thresh= 1.000E-02 alpha_mix =  0.700 |ddv_scf|^2 =  5.962E-05

      iter #   2 total cpu time :   446.7 secs   av.it.:   6.0
      thresh= 7.721E-04 alpha_mix =  0.700 |ddv_scf|^2 =  7.181E-04

      iter #   3 total cpu time :   449.9 secs   av.it.:   5.0
      thresh= 2.680E-03 alpha_mix =  0.700 |ddv_scf|^2 =  4.495E-08

      iter #   4 total cpu time :   453.7 secs   av.it.:   6.2
      thresh= 2.120E-05 alpha_mix =  0.700 |ddv_scf|^2 =  1.060E-09

     End of self-consistent calculation

     Convergence has been achieved 


     Representation #  15 mode #  15

     Self-consistent Calculation

      iter #   1 total cpu time :   456.3 secs   av.it.:   3.2
      thresh= 1.000E-02 alpha_mix =  0.700 |ddv_scf|^2 =  7.147E-06

      iter #   2 total cpu time :   460.6 secs   av.it.:   6.1
      thresh= 2.673E-04 alpha_mix =  0.700 |ddv_scf|^2 =  8.496E-05

      iter #   3 total cpu time :   463.8 secs   av.it.:   5.0
      thresh= 9.218E-04 alpha_mix =  0.700 |ddv_scf|^2 =  1.151E-08

      iter #   4 total cpu time :   467.6 secs   av.it.:   6.3
      thresh= 1.073E-05 alpha_mix =  0.700 |ddv_scf|^2 =  1.693E-10

     End of self-consistent calculation

     Convergence has been achieved 


     Representation #  16 mode #  16

     Self-consistent Calculation

      iter #   1 total cpu time :   470.1 secs   av.it.:   3.1
      thresh= 1.000E-02 alpha_mix =  0.700 |ddv_scf|^2 =  1.777E-06

      iter #   2 total cpu time :   473.9 secs   av.it.:   6.2
      thresh= 1.333E-04 alpha_mix =  0.700 |ddv_scf|^2 =  1.864E-05

      iter #   3 total cpu time :   477.1 secs   av.it.:   5.0
      thresh= 4.317E-04 alpha_mix =  0.700 |ddv_scf|^2 =  2.739E-08

      iter #   4 total cpu time :   480.7 secs   av.it.:   5.9
      thresh= 1.655E-05 alpha_mix =  0.700 |ddv_scf|^2 =  9.222E-11

     End of self-consistent calculation

     Convergence has been achieved 


     Representation #  17 mode #  17

     Self-consistent Calculation

      iter #   1 total cpu time :   484.0 secs   av.it.:   3.1
      thresh= 1.000E-02 alpha_mix =  0.700 |ddv_scf|^2 =  3.032E-06

      iter #   2 total cpu time :   488.3 secs   av.it.:   6.1
      thresh= 1.741E-04 alpha_mix =  0.700 |ddv_scf|^2 =  3.494E-05

      iter #   3 total cpu time :   491.5 secs   av.it.:   5.0
      thresh= 5.911E-04 alpha_mix =  0.700 |ddv_scf|^2 =  1.412E-08

      iter #   4 total cpu time :   495.3 secs   av.it.:   6.3
      thresh= 1.188E-05 alpha_mix =  0.700 |ddv_scf|^2 =  1.966E-10

     End of self-consistent calculation

     Convergence has been achieved 


     Representation #  18 mode #  18

     Self-consistent Calculation

      iter #   1 total cpu time :   498.1 secs   av.it.:   3.5
      thresh= 1.000E-02 alpha_mix =  0.700 |ddv_scf|^2 =  1.407E-05

      iter #   2 total cpu time :   501.8 secs   av.it.:   6.0
      thresh= 3.751E-04 alpha_mix =  0.700 |ddv_scf|^2 =  1.668E-04

      iter #   3 total cpu time :   505.5 secs   av.it.:   5.0
      thresh= 1.292E-03 alpha_mix =  0.700 |ddv_scf|^2 =  2.556E-08

      iter #   4 total cpu time :   509.2 secs   av.it.:   6.2
      thresh= 1.599E-05 alpha_mix =  0.700 |ddv_scf|^2 =  4.224E-10

     End of self-consistent calculation

     Convergence has been achieved 


     Representation #  19 mode #  19

     Self-consistent Calculation

      iter #   1 total cpu time :   511.9 secs   av.it.:   3.3
      thresh= 1.000E-02 alpha_mix =  0.700 |ddv_scf|^2 =  1.820E-05

      iter #   2 total cpu time :   515.6 secs   av.it.:   6.0
      thresh= 4.267E-04 alpha_mix =  0.700 |ddv_scf|^2 =  2.215E-04

      iter #   3 total cpu time :   519.1 secs   av.it.:   5.0
      thresh= 1.488E-03 alpha_mix =  0.700 |ddv_scf|^2 =  9.987E-09

     End of self-consistent calculation

     Convergence has been achieved 


     Representation #  20 mode #  20

     Self-consistent Calculation

      iter #   1 total cpu time :   521.7 secs   av.it.:   3.2
      thresh= 1.000E-02 alpha_mix =  0.700 |ddv_scf|^2 =  5.488E-06

      iter #   2 total cpu time :   525.4 secs   av.it.:   6.1
      thresh= 2.343E-04 alpha_mix =  0.700 |ddv_scf|^2 =  6.311E-05

      iter #   3 total cpu time :   528.7 secs   av.it.:   5.0
      thresh= 7.944E-04 alpha_mix =  0.700 |ddv_scf|^2 =  3.064E-08

      iter #   4 total cpu time :   533.0 secs   av.it.:   6.1
      thresh= 1.750E-05 alpha_mix =  0.700 |ddv_scf|^2 =  1.955E-10

     End of self-consistent calculation

     Convergence has been achieved 


     Representation #  21 mode #  21

     Self-consistent Calculation

      iter #   1 total cpu time :   535.6 secs   av.it.:   3.2
      thresh= 1.000E-02 alpha_mix =  0.700 |ddv_scf|^2 =  6.724E-06

      iter #   2 total cpu time :   539.3 secs   av.it.:   6.1
      thresh= 2.593E-04 alpha_mix =  0.700 |ddv_scf|^2 =  8.041E-05

      iter #   3 total cpu time :   542.5 secs   av.it.:   5.0
      thresh= 8.967E-04 alpha_mix =  0.700 |ddv_scf|^2 =  1.637E-08

      iter #   4 total cpu time :   546.3 secs   av.it.:   6.4
      thresh= 1.279E-05 alpha_mix =  0.700 |ddv_scf|^2 =  2.177E-10

     End of self-consistent calculation

     Convergence has been achieved 
 
     Number of q in the star =    2
     List of q in the star:
          1   0.433043368  -0.000001869  -0.000002724
          2  -0.433043368   0.000001869   0.000002724

     Diagonalizing the dynamical matrix

     q = (    0.433043368  -0.000001869  -0.000002724 ) 

 **************************************************************************
     freq (    1) =       6.010415 [THz] =     200.485878 [cm-1]
     freq (    2) =       7.013464 [THz] =     233.943986 [cm-1]
     freq (    3) =       7.149559 [THz] =     238.483620 [cm-1]
     freq (    4) =      18.401224 [THz] =     613.798769 [cm-1]
     freq (    5) =      19.099007 [THz] =     637.074293 [cm-1]
     freq (    6) =      19.815605 [THz] =     660.977431 [cm-1]
     freq (    7) =      21.274556 [THz] =     709.642819 [cm-1]
     freq (    8) =      21.492411 [THz] =     716.909659 [cm-1]
     freq (    9) =      26.503531 [THz] =     884.062634 [cm-1]
     freq (   10) =      27.411218 [THz] =     914.339813 [cm-1]
     freq (   11) =      28.776529 [THz] =     959.881674 [cm-1]
     freq (   12) =      29.717182 [THz] =     991.258493 [cm-1]
     freq (   13) =      31.976772 [THz] =    1066.630301 [cm-1]
     freq (   14) =      34.672688 [THz] =    1156.556377 [cm-1]
     freq (   15) =      35.309900 [THz] =    1177.811495 [cm-1]
     freq (   16) =      37.248352 [THz] =    1242.471277 [cm-1]
     freq (   17) =      39.734214 [THz] =    1325.390729 [cm-1]
     freq (   18) =      42.114532 [THz] =    1404.789572 [cm-1]
     freq (   19) =      44.189134 [THz] =    1473.990834 [cm-1]
     freq (   20) =      55.432796 [THz] =    1849.039043 [cm-1]
     freq (   21) =      64.220657 [THz] =    2142.170541 [cm-1]
 **************************************************************************

     Mode symmetry, C_1 (1)     point group:

     freq (   1-   1) =        200.5  [cm-1]   --> A                  
     freq (   2-   2) =        233.9  [cm-1]   --> A                  
     freq (   3-   3) =        238.5  [cm-1]   --> A                  
     freq (   4-   4) =        613.8  [cm-1]   --> A                  
     freq (   5-   5) =        637.1  [cm-1]   --> A                  
     freq (   6-   6) =        661.0  [cm-1]   --> A                  
     freq (   7-   7) =        709.6  [cm-1]   --> A                  
     freq (   8-   8) =        716.9  [cm-1]   --> A                  
     freq (   9-   9) =        884.1  [cm-1]   --> A                  
     freq (  10-  10) =        914.3  [cm-1]   --> A                  
     freq (  11-  11) =        959.9  [cm-1]   --> A                  
     freq (  12-  12) =        991.3  [cm-1]   --> A                  
     freq (  13-  13) =       1066.6  [cm-1]   --> A                  
     freq (  14-  14) =       1156.6  [cm-1]   --> A                  
     freq (  15-  15) =       1177.8  [cm-1]   --> A                  
     freq (  16-  16) =       1242.5  [cm-1]   --> A                  
     freq (  17-  17) =       1325.4  [cm-1]   --> A                  
     freq (  18-  18) =       1404.8  [cm-1]   --> A                  
     freq (  19-  19) =       1474.0  [cm-1]   --> A                  
     freq (  20-  20) =       1849.0  [cm-1]   --> A                  
     freq (  21-  21) =       2142.2  [cm-1]   --> A                  

     Calculation of q =   -0.0000019   0.4330178  -0.0000190
     [opt_tetra]  Optimized tetrahedron method is used.
 
     Parallelization info
     --------------------
     sticks:   dense  smooth     PW     G-vecs:    dense   smooth      PW
     Min          34      34     12                  575      575     124
     Max          35      35     13                  578      578     126
     Sum         693     693    249                11537    11537    2491
 
     Using Slab Decomposition
 

     Title: 
     Electron-phonon coefficients for CaH6                                      


     bravais-lattice index     =            0
     lattice parameter (alat)  =       5.3806  a.u.
     unit-cell volume          =     119.8986 (a.u.)^3
     number of atoms/cell      =            7
     number of atomic types    =            2
     number of electrons       =         8.00
     number of Kohn-Sham states=            8
     kinetic-energy cutoff     =      80.0000  Ry
     charge density cutoff     =     320.0000  Ry
     Exchange-correlation= PZ
                           (   1   1   0   0   0   0   0)

     celldm(1)=   5.380563  celldm(2)=   0.000000  celldm(3)=   0.000000
     celldm(4)=   0.000000  celldm(5)=   0.000000  celldm(6)=   0.000000

     crystal axes: (cart. coord. in units of alat)
               a(1) = (   0.577316   0.577371   0.577364 )  
               a(2) = (   0.577303  -0.577366  -0.577357 )  
               a(3) = (  -0.577311   0.577316  -0.577313 )  

     reciprocal axes: (cart. coord. in units 2 pi/alat)
               b(1) = (  0.866083  0.866032 -0.000044 )  
               b(2) = (  0.866092  0.000034 -0.866054 )  
               b(3) = (  0.000002  0.866074 -0.866086 )  


     PseudoPot. # 1 for H  read from file:
     ./H.UPF
     MD5 check sum: df8e43189db5a2d7f03d0dd74d71ce72
     Pseudo is Norm-conserving, Zval =  1.0
     Generated in analytical, separable form
     Using radial grid of  929 points,  0 beta functions with: 

     PseudoPot. # 2 for Ca read from file:
     ./Ca.UPF
     MD5 check sum: 3d0b95105a6fbfe7d4b72bf2bbe3cdff
     Pseudo is Norm-conserving, Zval =  2.0
     Generated in analytical, separable form
     Using radial grid of 1169 points,  6 beta functions with: 
                l(1) =   0
                l(2) =   0
                l(3) =   0
                l(4) =   1
                l(5) =   1
                l(6) =   2

     atomic species   valence    mass     pseudopotential
        H              1.00     1.00794     H ( 1.00)
        Ca             2.00    40.07800     Ca( 1.00)

      2 Sym. Ops., with inversion, found



   Cartesian axes

     site n.     atom                  positions (alat units)
         1           Ca  tau(   1) = (   0.0000004   0.0000001  -0.0000001  )
         2           H   tau(   2) = (   0.2886511  -0.0000241  -0.5773319  )
         3           H   tau(   3) = (   0.2886569   0.5773448   0.0000260  )
         4           H   tau(   4) = (   0.5773109   0.2886738   0.0000092  )
         5           H   tau(   5) = (  -0.0000027   0.2886468  -0.5773151  )
         6           H   tau(   6) = (   0.5773062  -0.0000030  -0.2886636  )
         7           H   tau(   7) = (   0.0000020   0.5773234  -0.2886424  )

     number of k points=  1024 (tetrahedron method)

     Number of k-points >= 100: set verbosity='high' to print them.

     Dense  grid:    11537 G-vectors     FFT dimensions: (  32,  32,  32)

     Estimated max dynamical RAM per process >       3.34 MB

     Estimated total dynamical RAM >      66.75 MB

     The potential is recalculated from file :
     ./_ph0/CaH6.q_3/CaH6.save/charge-density

     Starting wfcs are    6 atomic +    2 random wfcs

     Band Structure Calculation
     Davidson diagonalization with overlap

     ethr =  1.25E-10,  avg # of iterations = 21.5

     total cpu time spent up to now is       57.5 secs

     End of band structure calculation

     Number of k-points >= 100: set verbosity='high' to print the bands.

     the Fermi energy is    10.4218 ev

     Writing config to output data dir ./_ph0/CaH6.q_3/CaH6.save/
 
     [dfpt_tetra]  Dos(E_F)[/Ry] :   0.6546949E+01

     Electron-phonon coefficients for CaH6                                      

     bravais-lattice index     =            0
     lattice parameter (alat)  =       5.3806  a.u.
     unit-cell volume          =     119.8986 (a.u.)^3
     number of atoms/cell      =            7
     number of atomic types    =            2
     kinetic-energy cut-off    =      80.0000  Ry
     charge density cut-off    =     320.0000  Ry
     convergence threshold     =      1.0E-08
     beta                      =       0.7000
     number of iterations used =            4
     Exchange-correlation= PZ
                           (   1   1   0   0   0   0   0)


     celldm(1)=    5.38056  celldm(2)=    0.00000  celldm(3)=    0.00000
     celldm(4)=    0.00000  celldm(5)=    0.00000  celldm(6)=    0.00000

     crystal axes: (cart. coord. in units of alat)
               a(1) = (  0.5773  0.5774  0.5774 )  
               a(2) = (  0.5773 -0.5774 -0.5774 )  
               a(3) = ( -0.5773  0.5773 -0.5773 )  

     reciprocal axes: (cart. coord. in units 2 pi/alat)
               b(1) = (  0.8661  0.8660 -0.0000 )  
               b(2) = (  0.8661  0.0000 -0.8661 )  
               b(3) = (  0.0000  0.8661 -0.8661 )  


     Atoms inside the unit cell: 

     Cartesian axes

     site n.  atom      mass           positions (alat units)
        1     Ca  40.0780   tau(    1) = (    0.00000    0.00000   -0.00000  )
        2     H    1.0079   tau(    2) = (    0.28865   -0.00002   -0.57733  )
        3     H    1.0079   tau(    3) = (    0.28866    0.57734    0.00003  )
        4     H    1.0079   tau(    4) = (    0.57731    0.28867    0.00001  )
        5     H    1.0079   tau(    5) = (   -0.00000    0.28865   -0.57732  )
        6     H    1.0079   tau(    6) = (    0.57731   -0.00000   -0.28866  )
        7     H    1.0079   tau(    7) = (    0.00000    0.57732   -0.28864  )

     Computing dynamical matrix for 
                    q = (  -0.0000019   0.4330178  -0.0000190 )
 
     No symmetry!

     G cutoff =  234.6636  (    578 G-vectors)     FFT grid: ( 32, 32, 32)
     number of k points=  1024

     PseudoPot. # 1 for H  read from file:
     ./H.UPF
     MD5 check sum: df8e43189db5a2d7f03d0dd74d71ce72
     Pseudo is Norm-conserving, Zval =  1.0
     Generated in analytical, separable form
     Using radial grid of  929 points,  0 beta functions with: 

     PseudoPot. # 2 for Ca read from file:
     ./Ca.UPF
     MD5 check sum: 3d0b95105a6fbfe7d4b72bf2bbe3cdff
     Pseudo is Norm-conserving, Zval =  2.0
     Generated in analytical, separable form
     Using radial grid of 1169 points,  6 beta functions with: 
                l(1) =   0
                l(2) =   0
                l(3) =   0
                l(4) =   1
                l(5) =   1
                l(6) =   2

     Mode symmetry, C_1 (1)     point group:


     Atomic displacements:
     There are   21 irreducible representations

     Representation     1      1 modes -  To be done

     Representation     2      1 modes -  To be done

     Representation     3      1 modes -  To be done

     Representation     4      1 modes -  To be done

     Representation     5      1 modes -  To be done

     Representation     6      1 modes -  To be done

     Representation     7      1 modes -  To be done

     Representation     8      1 modes -  To be done

     Representation     9      1 modes -  To be done

     Representation    10      1 modes -  To be done

     Representation    11      1 modes -  To be done

     Representation    12      1 modes -  To be done

     Representation    13      1 modes -  To be done

     Representation    14      1 modes -  To be done

     Representation    15      1 modes -  To be done

     Representation    16      1 modes -  To be done

     Representation    17      1 modes -  To be done

     Representation    18      1 modes -  To be done

     Representation    19      1 modes -  To be done

     Representation    20      1 modes -  To be done

     Representation    21      1 modes -  To be done



     Alpha used in Ewald sum =   2.8000
     PHONON       :   8m17.66s CPU   9m26.07s WALL



     Representation #   1 mode #   1

     Self-consistent Calculation

      iter #   1 total cpu time :   568.5 secs   av.it.:   3.2
      thresh= 1.000E-02 alpha_mix =  0.700 |ddv_scf|^2 =  9.601E-06

      iter #   2 total cpu time :   572.2 secs   av.it.:   6.1
      thresh= 3.099E-04 alpha_mix =  0.700 |ddv_scf|^2 =  1.178E-04

      iter #   3 total cpu time :   575.9 secs   av.it.:   5.0
      thresh= 1.085E-03 alpha_mix =  0.700 |ddv_scf|^2 =  1.070E-08

      iter #   4 total cpu time :   579.8 secs   av.it.:   6.3
      thresh= 1.035E-05 alpha_mix =  0.700 |ddv_scf|^2 =  2.037E-10

     End of self-consistent calculation

     Convergence has been achieved 


     Representation #   2 mode #   2

     Self-consistent Calculation

      iter #   1 total cpu time :   582.4 secs   av.it.:   3.2
      thresh= 1.000E-02 alpha_mix =  0.700 |ddv_scf|^2 =  1.088E-05

      iter #   2 total cpu time :   586.1 secs   av.it.:   6.1
      thresh= 3.298E-04 alpha_mix =  0.700 |ddv_scf|^2 =  1.339E-04

      iter #   3 total cpu time :   589.7 secs   av.it.:   5.0
      thresh= 1.157E-03 alpha_mix =  0.700 |ddv_scf|^2 =  1.042E-08

      iter #   4 total cpu time :   593.5 secs   av.it.:   6.4
      thresh= 1.021E-05 alpha_mix =  0.700 |ddv_scf|^2 =  2.216E-10

     End of self-consistent calculation

     Convergence has been achieved 


     Representation #   3 mode #   3

     Self-consistent Calculation

      iter #   1 total cpu time :   596.6 secs   av.it.:   3.2
      thresh= 1.000E-02 alpha_mix =  0.700 |ddv_scf|^2 =  4.153E-06

      iter #   2 total cpu time :   600.3 secs   av.it.:   6.2
      thresh= 2.038E-04 alpha_mix =  0.700 |ddv_scf|^2 =  4.977E-05

      iter #   3 total cpu time :   603.5 secs   av.it.:   5.0
      thresh= 7.055E-04 alpha_mix =  0.700 |ddv_scf|^2 =  1.566E-08

      iter #   4 total cpu time :   607.3 secs   av.it.:   6.4
      thresh= 1.251E-05 alpha_mix =  0.700 |ddv_scf|^2 =  2.122E-10

     End of self-consistent calculation

     Convergence has been achieved 


     Representation #   4 mode #   4

     Self-consistent Calculation

      iter #   1 total cpu time :   609.9 secs   av.it.:   3.1
      thresh= 1.000E-02 alpha_mix =  0.700 |ddv_scf|^2 =  2.016E-06

      iter #   2 total cpu time :   613.7 secs   av.it.:   6.2
      thresh= 1.420E-04 alpha_mix =  0.700 |ddv_scf|^2 =  2.149E-05

      iter #   3 total cpu time :   616.9 secs   av.it.:   5.0
      thresh= 4.636E-04 alpha_mix =  0.700 |ddv_scf|^2 =  4.241E-08

      iter #   4 total cpu time :   620.7 secs   av.it.:   5.9
      thresh= 2.059E-05 alpha_mix =  0.700 |ddv_scf|^2 =  1.589E-10

     End of self-consistent calculation

     Convergence has been achieved 


     Representation #   5 mode #   5

     Self-consistent Calculation

      iter #   1 total cpu time :   623.6 secs   av.it.:   3.5
      thresh= 1.000E-02 alpha_mix =  0.700 |ddv_scf|^2 =  1.708E-05

      iter #   2 total cpu time :   627.3 secs   av.it.:   6.1
      thresh= 4.132E-04 alpha_mix =  0.700 |ddv_scf|^2 =  2.079E-04

      iter #   3 total cpu time :   630.5 secs   av.it.:   5.0
      thresh= 1.442E-03 alpha_mix =  0.700 |ddv_scf|^2 =  2.576E-08

      iter #   4 total cpu time :   634.2 secs   av.it.:   6.2
      thresh= 1.605E-05 alpha_mix =  0.700 |ddv_scf|^2 =  4.620E-10

     End of self-consistent calculation

     Convergence has been achieved 


     Representation #   6 mode #   6

     Self-consistent Calculation

      iter #   1 total cpu time :   636.9 secs   av.it.:   3.3
      thresh= 1.000E-02 alpha_mix =  0.700 |ddv_scf|^2 =  2.307E-05

      iter #   2 total cpu time :   641.2 secs   av.it.:   6.0
      thresh= 4.803E-04 alpha_mix =  0.700 |ddv_scf|^2 =  2.902E-04

      iter #   3 total cpu time :   644.4 secs   av.it.:   5.0
      thresh= 1.704E-03 alpha_mix =  0.700 |ddv_scf|^2 =  9.544E-09

     End of self-consistent calculation

     Convergence has been achieved 


     Representation #   7 mode #   7

     Self-consistent Calculation

      iter #   1 total cpu time :   647.1 secs   av.it.:   3.3
      thresh= 1.000E-02 alpha_mix =  0.700 |ddv_scf|^2 =  1.547E-05

      iter #   2 total cpu time :   650.8 secs   av.it.:   6.1
      thresh= 3.934E-04 alpha_mix =  0.700 |ddv_scf|^2 =  1.938E-04

      iter #   3 total cpu time :   654.0 secs   av.it.:   5.0
      thresh= 1.392E-03 alpha_mix =  0.700 |ddv_scf|^2 =  9.110E-09

     End of self-consistent calculation

     Convergence has been achieved 


     Representation #   8 mode #   8

     Self-consistent Calculation

      iter #   1 total cpu time :   656.6 secs   av.it.:   3.2
      thresh= 1.000E-02 alpha_mix =  0.700 |ddv_scf|^2 =  7.178E-06

      iter #   2 total cpu time :   660.6 secs   av.it.:   6.1
      thresh= 2.679E-04 alpha_mix =  0.700 |ddv_scf|^2 =  8.723E-05

      iter #   3 total cpu time :   664.4 secs   av.it.:   5.0
      thresh= 9.340E-04 alpha_mix =  0.700 |ddv_scf|^2 =  1.152E-08

      iter #   4 total cpu time :   668.2 secs   av.it.:   6.3
      thresh= 1.073E-05 alpha_mix =  0.700 |ddv_scf|^2 =  1.680E-10

     End of self-consistent calculation

     Convergence has been achieved 


     Representation #   9 mode #   9

     Self-consistent Calculation

      iter #   1 total cpu time :   670.9 secs   av.it.:   3.2
      thresh= 1.000E-02 alpha_mix =  0.700 |ddv_scf|^2 =  8.866E-06

      iter #   2 total cpu time :   674.6 secs   av.it.:   6.1
      thresh= 2.978E-04 alpha_mix =  0.700 |ddv_scf|^2 =  1.086E-04

      iter #   3 total cpu time :   677.9 secs   av.it.:   5.0
      thresh= 1.042E-03 alpha_mix =  0.700 |ddv_scf|^2 =  1.086E-08

      iter #   4 total cpu time :   681.7 secs   av.it.:   6.3
      thresh= 1.042E-05 alpha_mix =  0.700 |ddv_scf|^2 =  1.941E-10

     End of self-consistent calculation

     Convergence has been achieved 


     Representation #  10 mode #  10

     Self-consistent Calculation

      iter #   1 total cpu time :   684.4 secs   av.it.:   3.2
      thresh= 1.000E-02 alpha_mix =  0.700 |ddv_scf|^2 =  1.147E-05

      iter #   2 total cpu time :   688.5 secs   av.it.:   6.1
      thresh= 3.386E-04 alpha_mix =  0.700 |ddv_scf|^2 =  1.414E-04

      iter #   3 total cpu time :   691.7 secs   av.it.:   5.0
      thresh= 1.189E-03 alpha_mix =  0.700 |ddv_scf|^2 =  1.028E-08

      iter #   4 total cpu time :   695.6 secs   av.it.:   6.4
      thresh= 1.014E-05 alpha_mix =  0.700 |ddv_scf|^2 =  2.316E-10

     End of self-consistent calculation

     Convergence has been achieved 


     Representation #  11 mode #  11

     Self-consistent Calculation

      iter #   1 total cpu time :   698.2 secs   av.it.:   3.3
      thresh= 1.000E-02 alpha_mix =  0.700 |ddv_scf|^2 =  1.114E-05

      iter #   2 total cpu time :   702.0 secs   av.it.:   6.1
      thresh= 3.337E-04 alpha_mix =  0.700 |ddv_scf|^2 =  1.370E-04

      iter #   3 total cpu time :   705.5 secs   av.it.:   5.0
      thresh= 1.170E-03 alpha_mix =  0.700 |ddv_scf|^2 =  1.387E-08

      iter #   4 total cpu time :   710.1 secs   av.it.:   6.5
      thresh= 1.178E-05 alpha_mix =  0.700 |ddv_scf|^2 =  2.662E-10

     End of self-consistent calculation

     Convergence has been achieved 


     Representation #  12 mode #  12

     Self-consistent Calculation

      iter #   1 total cpu time :   712.7 secs   av.it.:   3.2
      thresh= 1.000E-02 alpha_mix =  0.700 |ddv_scf|^2 =  4.551E-06

      iter #   2 total cpu time :   716.5 secs   av.it.:   6.1
      thresh= 2.133E-04 alpha_mix =  0.700 |ddv_scf|^2 =  5.380E-05

      iter #   3 total cpu time :   719.7 secs   av.it.:   5.0
      thresh= 7.335E-04 alpha_mix =  0.700 |ddv_scf|^2 =  1.820E-08

      iter #   4 total cpu time :   723.5 secs   av.it.:   6.2
      thresh= 1.349E-05 alpha_mix =  0.700 |ddv_scf|^2 =  1.437E-10

     End of self-consistent calculation

     Convergence has been achieved 


     Representation #  13 mode #  13

     Self-consistent Calculation

      iter #   1 total cpu time :   726.1 secs   av.it.:   3.3
      thresh= 1.000E-02 alpha_mix =  0.700 |ddv_scf|^2 =  2.156E-05

      iter #   2 total cpu time :   729.9 secs   av.it.:   6.0
      thresh= 4.643E-04 alpha_mix =  0.700 |ddv_scf|^2 =  2.695E-04

      iter #   3 total cpu time :   734.0 secs   av.it.:   5.0
      thresh= 1.642E-03 alpha_mix =  0.700 |ddv_scf|^2 =  7.374E-09

     End of self-consistent calculation

     Convergence has been achieved 


     Representation #  14 mode #  14

     Self-consistent Calculation

      iter #   1 total cpu time :   736.8 secs   av.it.:   3.4
      thresh= 1.000E-02 alpha_mix =  0.700 |ddv_scf|^2 =  7.200E-06

      iter #   2 total cpu time :   740.6 secs   av.it.:   6.1
      thresh= 2.683E-04 alpha_mix =  0.700 |ddv_scf|^2 =  8.550E-05

      iter #   3 total cpu time :   743.8 secs   av.it.:   5.0
      thresh= 9.247E-04 alpha_mix =  0.700 |ddv_scf|^2 =  2.558E-08

      iter #   4 total cpu time :   747.5 secs   av.it.:   6.1
      thresh= 1.599E-05 alpha_mix =  0.700 |ddv_scf|^2 =  3.558E-10

     End of self-consistent calculation

     Convergence has been achieved 


     Representation #  15 mode #  15

     Self-consistent Calculation

      iter #   1 total cpu time :   750.1 secs   av.it.:   3.2
      thresh= 1.000E-02 alpha_mix =  0.700 |ddv_scf|^2 =  1.046E-05

      iter #   2 total cpu time :   754.4 secs   av.it.:   6.1
      thresh= 3.234E-04 alpha_mix =  0.700 |ddv_scf|^2 =  1.282E-04

      iter #   3 total cpu time :   757.6 secs   av.it.:   5.0
      thresh= 1.132E-03 alpha_mix =  0.700 |ddv_scf|^2 =  1.313E-08

      iter #   4 total cpu time :   761.5 secs   av.it.:   6.4
      thresh= 1.146E-05 alpha_mix =  0.700 |ddv_scf|^2 =  2.256E-10

     End of self-consistent calculation

     Convergence has been achieved 


     Representation #  16 mode #  16

     Self-consistent Calculation

      iter #   1 total cpu time :   764.4 secs   av.it.:   3.3
      thresh= 1.000E-02 alpha_mix =  0.700 |ddv_scf|^2 =  1.289E-05

      iter #   2 total cpu time :   768.1 secs   av.it.:   6.1
      thresh= 3.590E-04 alpha_mix =  0.700 |ddv_scf|^2 =  1.603E-04

      iter #   3 total cpu time :   771.3 secs   av.it.:   5.0
      thresh= 1.266E-03 alpha_mix =  0.700 |ddv_scf|^2 =  8.395E-09

     End of self-consistent calculation

     Convergence has been achieved 


     Representation #  17 mode #  17

     Self-consistent Calculation

      iter #   1 total cpu time :   773.9 secs   av.it.:   3.2
      thresh= 1.000E-02 alpha_mix =  0.700 |ddv_scf|^2 =  8.504E-06

      iter #   2 total cpu time :   778.3 secs   av.it.:   6.1
      thresh= 2.916E-04 alpha_mix =  0.700 |ddv_scf|^2 =  1.040E-04

      iter #   3 total cpu time :   781.5 secs   av.it.:   5.0
      thresh= 1.020E-03 alpha_mix =  0.700 |ddv_scf|^2 =  1.090E-08

      iter #   4 total cpu time :   785.3 secs   av.it.:   6.3
      thresh= 1.044E-05 alpha_mix =  0.700 |ddv_scf|^2 =  1.875E-10

     End of self-consistent calculation

     Convergence has been achieved 


     Representation #  18 mode #  18

     Self-consistent Calculation

      iter #   1 total cpu time :   788.2 secs   av.it.:   3.7
      thresh= 1.000E-02 alpha_mix =  0.700 |ddv_scf|^2 =  5.552E-05

      iter #   2 total cpu time :   791.9 secs   av.it.:   6.0
      thresh= 7.451E-04 alpha_mix =  0.700 |ddv_scf|^2 =  6.836E-04

      iter #   3 total cpu time :   795.1 secs   av.it.:   5.0
      thresh= 2.615E-03 alpha_mix =  0.700 |ddv_scf|^2 =  4.274E-08

      iter #   4 total cpu time :   799.3 secs   av.it.:   6.2
      thresh= 2.067E-05 alpha_mix =  0.700 |ddv_scf|^2 =  1.013E-09

     End of self-consistent calculation

     Convergence has been achieved 


     Representation #  19 mode #  19

     Self-consistent Calculation

      iter #   1 total cpu time :   802.1 secs   av.it.:   3.1
      thresh= 1.000E-02 alpha_mix =  0.700 |ddv_scf|^2 =  2.249E-06

      iter #   2 total cpu time :   805.9 secs   av.it.:   6.2
      thresh= 1.500E-04 alpha_mix =  0.700 |ddv_scf|^2 =  2.502E-05

      iter #   3 total cpu time :   809.1 secs   av.it.:   5.0
      thresh= 5.002E-04 alpha_mix =  0.700 |ddv_scf|^2 =  2.919E-08

      iter #   4 total cpu time :   812.8 secs   av.it.:   6.1
      thresh= 1.709E-05 alpha_mix =  0.700 |ddv_scf|^2 =  1.777E-10

     End of self-consistent calculation

     Convergence has been achieved 


     Representation #  20 mode #  20

     Self-consistent Calculation

      iter #   1 total cpu time :   815.4 secs   av.it.:   3.2
      thresh= 1.000E-02 alpha_mix =  0.700 |ddv_scf|^2 =  4.617E-06

      iter #   2 total cpu time :   819.1 secs   av.it.:   6.1
      thresh= 2.149E-04 alpha_mix =  0.700 |ddv_scf|^2 =  5.622E-05

      iter #   3 total cpu time :   822.9 secs   av.it.:   5.0
      thresh= 7.498E-04 alpha_mix =  0.700 |ddv_scf|^2 =  1.505E-08

      iter #   4 total cpu time :   826.7 secs   av.it.:   6.4
      thresh= 1.227E-05 alpha_mix =  0.700 |ddv_scf|^2 =  2.182E-10

     End of self-consistent calculation

     Convergence has been achieved 


     Representation #  21 mode #  21

     Self-consistent Calculation

      iter #   1 total cpu time :   829.4 secs   av.it.:   3.1
      thresh= 1.000E-02 alpha_mix =  0.700 |ddv_scf|^2 =  5.603E-07

      iter #   2 total cpu time :   833.1 secs   av.it.:   6.2
      thresh= 7.486E-05 alpha_mix =  0.700 |ddv_scf|^2 =  3.069E-06

      iter #   3 total cpu time :   836.4 secs   av.it.:   5.1
      thresh= 1.752E-04 alpha_mix =  0.700 |ddv_scf|^2 =  2.045E-07

      iter #   4 total cpu time :   839.9 secs   av.it.:   5.4
      thresh= 4.522E-05 alpha_mix =  0.700 |ddv_scf|^2 =  1.748E-10

     End of self-consistent calculation

     Convergence has been achieved 
 
     Number of q in the star =    2
     List of q in the star:
          1  -0.000001869   0.433017805  -0.000019028
          2   0.000001869  -0.433017805   0.000019028

     Diagonalizing the dynamical matrix

     q = (   -0.000001869   0.433017805  -0.000019028 ) 

 **************************************************************************
     freq (    1) =       5.554810 [THz] =     185.288502 [cm-1]
     freq (    2) =       6.330416 [THz] =     211.159937 [cm-1]
     freq (    3) =       6.919940 [THz] =     230.824348 [cm-1]
     freq (    4) =      14.279200 [THz] =     476.302847 [cm-1]
     freq (    5) =      15.026272 [THz] =     501.222486 [cm-1]
     freq (    6) =      18.962362 [THz] =     632.516301 [cm-1]
     freq (    7) =      19.391232 [THz] =     646.821862 [cm-1]
     freq (    8) =      21.424185 [THz] =     714.633884 [cm-1]
     freq (    9) =      26.842462 [THz] =     895.368152 [cm-1]
     freq (   10) =      28.095714 [THz] =     937.172147 [cm-1]
     freq (   11) =      28.778134 [THz] =     959.935224 [cm-1]
     freq (   12) =      31.546053 [THz] =    1052.263078 [cm-1]
     freq (   13) =      34.457321 [THz] =    1149.372521 [cm-1]
     freq (   14) =      34.973106 [THz] =    1166.577231 [cm-1]
     freq (   15) =      35.377314 [THz] =    1180.060166 [cm-1]
     freq (   16) =      37.994931 [THz] =    1267.374484 [cm-1]
     freq (   17) =      40.591359 [THz] =    1353.981996 [cm-1]
     freq (   18) =      45.336527 [THz] =    1512.263761 [cm-1]
     freq (   19) =      46.286767 [THz] =    1543.960372 [cm-1]
     freq (   20) =      54.194467 [THz] =    1807.732839 [cm-1]
     freq (   21) =      66.189478 [THz] =    2207.843332 [cm-1]
 **************************************************************************

     Mode symmetry, C_1 (1)     point group:

     freq (   1-   1) =        185.3  [cm-1]   --> A                  
     freq (   2-   2) =        211.2  [cm-1]   --> A                  
     freq (   3-   3) =        230.8  [cm-1]   --> A                  
     freq (   4-   4) =        476.3  [cm-1]   --> A                  
     freq (   5-   5) =        501.2  [cm-1]   --> A                  
     freq (   6-   6) =        632.5  [cm-1]   --> A                  
     freq (   7-   7) =        646.8  [cm-1]   --> A                  
     freq (   8-   8) =        714.6  [cm-1]   --> A                  
     freq (   9-   9) =        895.4  [cm-1]   --> A                  
     freq (  10-  10) =        937.2  [cm-1]   --> A                  
     freq (  11-  11) =        959.9  [cm-1]   --> A                  
     freq (  12-  12) =       1052.3  [cm-1]   --> A                  
     freq (  13-  13) =       1149.4  [cm-1]   --> A                  
     freq (  14-  14) =       1166.6  [cm-1]   --> A                  
     freq (  15-  15) =       1180.1  [cm-1]   --> A                  
     freq (  16-  16) =       1267.4  [cm-1]   --> A                  
     freq (  17-  17) =       1354.0  [cm-1]   --> A                  
     freq (  18-  18) =       1512.3  [cm-1]   --> A                  
     freq (  19-  19) =       1544.0  [cm-1]   --> A                  
     freq (  20-  20) =       1807.7  [cm-1]   --> A                  
     freq (  21-  21) =       2207.8  [cm-1]   --> A                  

     Calculation of q =   -0.0000027  -0.0000190   0.4330242
     [opt_tetra]  Optimized tetrahedron method is used.
 
     Parallelization info
     --------------------
     sticks:   dense  smooth     PW     G-vecs:    dense   smooth      PW
     Min          34      34     13                  575      575     136
     Max          35      35     14                  578      578     139
     Sum         693     693    265                11537    11537    2731
 
     Using Slab Decomposition
 

     Title: 
     Electron-phonon coefficients for CaH6                                      


     bravais-lattice index     =            0
     lattice parameter (alat)  =       5.3806  a.u.
     unit-cell volume          =     119.8986 (a.u.)^3
     number of atoms/cell      =            7
     number of atomic types    =            2
     number of electrons       =         8.00
     number of Kohn-Sham states=            8
     kinetic-energy cutoff     =      80.0000  Ry
     charge density cutoff     =     320.0000  Ry
     Exchange-correlation= PZ
                           (   1   1   0   0   0   0   0)

     celldm(1)=   5.380563  celldm(2)=   0.000000  celldm(3)=   0.000000
     celldm(4)=   0.000000  celldm(5)=   0.000000  celldm(6)=   0.000000

     crystal axes: (cart. coord. in units of alat)
               a(1) = (   0.577316   0.577371   0.577364 )  
               a(2) = (   0.577303  -0.577366  -0.577357 )  
               a(3) = (  -0.577311   0.577316  -0.577313 )  

     reciprocal axes: (cart. coord. in units 2 pi/alat)
               b(1) = (  0.866083  0.866032 -0.000044 )  
               b(2) = (  0.866092  0.000034 -0.866054 )  
               b(3) = (  0.000002  0.866074 -0.866086 )  


     PseudoPot. # 1 for H  read from file:
     ./H.UPF
     MD5 check sum: df8e43189db5a2d7f03d0dd74d71ce72
     Pseudo is Norm-conserving, Zval =  1.0
     Generated in analytical, separable form
     Using radial grid of  929 points,  0 beta functions with: 

     PseudoPot. # 2 for Ca read from file:
     ./Ca.UPF
     MD5 check sum: 3d0b95105a6fbfe7d4b72bf2bbe3cdff
     Pseudo is Norm-conserving, Zval =  2.0
     Generated in analytical, separable form
     Using radial grid of 1169 points,  6 beta functions with: 
                l(1) =   0
                l(2) =   0
                l(3) =   0
                l(4) =   1
                l(5) =   1
                l(6) =   2

     atomic species   valence    mass     pseudopotential
        H              1.00     1.00794     H ( 1.00)
        Ca             2.00    40.07800     Ca( 1.00)

      2 Sym. Ops., with inversion, found



   Cartesian axes

     site n.     atom                  positions (alat units)
         1           Ca  tau(   1) = (   0.0000004   0.0000001  -0.0000001  )
         2           H   tau(   2) = (   0.2886511  -0.0000241  -0.5773319  )
         3           H   tau(   3) = (   0.2886569   0.5773448   0.0000260  )
         4           H   tau(   4) = (   0.5773109   0.2886738   0.0000092  )
         5           H   tau(   5) = (  -0.0000027   0.2886468  -0.5773151  )
         6           H   tau(   6) = (   0.5773062  -0.0000030  -0.2886636  )
         7           H   tau(   7) = (   0.0000020   0.5773234  -0.2886424  )

     number of k points=  1024 (tetrahedron method)

     Number of k-points >= 100: set verbosity='high' to print them.

     Dense  grid:    11537 G-vectors     FFT dimensions: (  32,  32,  32)

[...]
      thresh= 1.000E-02 alpha_mix =  0.700 |ddv_scf|^2 =  9.214E-06

      iter #   2 total cpu time :   907.9 secs   av.it.:   6.1
      thresh= 3.035E-04 alpha_mix =  0.700 |ddv_scf|^2 =  1.098E-04

      iter #   3 total cpu time :   911.1 secs   av.it.:   5.0
      thresh= 1.048E-03 alpha_mix =  0.700 |ddv_scf|^2 =  1.082E-08

      iter #   4 total cpu time :   915.0 secs   av.it.:   6.4
      thresh= 1.040E-05 alpha_mix =  0.700 |ddv_scf|^2 =  1.989E-10

     End of self-consistent calculation

     Convergence has been achieved 


     Representation #   5 mode #   5

     Self-consistent Calculation

      iter #   1 total cpu time :   918.3 secs   av.it.:   3.7
      thresh= 1.000E-02 alpha_mix =  0.700 |ddv_scf|^2 =  5.698E-05

      iter #   2 total cpu time :   922.1 secs   av.it.:   6.0
      thresh= 7.548E-04 alpha_mix =  0.700 |ddv_scf|^2 =  6.823E-04

      iter #   3 total cpu time :   925.3 secs   av.it.:   5.0
      thresh= 2.612E-03 alpha_mix =  0.700 |ddv_scf|^2 =  4.309E-08

      iter #   4 total cpu time :   929.1 secs   av.it.:   6.2
      thresh= 2.076E-05 alpha_mix =  0.700 |ddv_scf|^2 =  1.006E-09

     End of self-consistent calculation

     Convergence has been achieved 


     Representation #   6 mode #   6

     Self-consistent Calculation

      iter #   1 total cpu time :   931.6 secs   av.it.:   3.1
      thresh= 1.000E-02 alpha_mix =  0.700 |ddv_scf|^2 =  2.625E-06

      iter #   2 total cpu time :   935.4 secs   av.it.:   6.1
      thresh= 1.620E-04 alpha_mix =  0.700 |ddv_scf|^2 =  2.896E-05

      iter #   3 total cpu time :   939.1 secs   av.it.:   5.0
      thresh= 5.382E-04 alpha_mix =  0.700 |ddv_scf|^2 =  1.984E-08

      iter #   4 total cpu time :   942.9 secs   av.it.:   6.1
      thresh= 1.409E-05 alpha_mix =  0.700 |ddv_scf|^2 =  1.031E-10

     End of self-consistent calculation

     Convergence has been achieved 


     Representation #   7 mode #   7

     Self-consistent Calculation

      iter #   1 total cpu time :   945.7 secs   av.it.:   3.2
      thresh= 1.000E-02 alpha_mix =  0.700 |ddv_scf|^2 =  1.024E-05

      iter #   2 total cpu time :   949.4 secs   av.it.:   6.1
      thresh= 3.201E-04 alpha_mix =  0.700 |ddv_scf|^2 =  1.227E-04

      iter #   3 total cpu time :   953.0 secs   av.it.:   5.0
      thresh= 1.108E-03 alpha_mix =  0.700 |ddv_scf|^2 =  9.807E-09

     End of self-consistent calculation

     Convergence has been achieved 


     Representation #   8 mode #   8

     Self-consistent Calculation

      iter #   1 total cpu time :   955.7 secs   av.it.:   3.3
      thresh= 1.000E-02 alpha_mix =  0.700 |ddv_scf|^2 =  1.674E-05

      iter #   2 total cpu time :   959.4 secs   av.it.:   6.0
      thresh= 4.091E-04 alpha_mix =  0.700 |ddv_scf|^2 =  2.038E-04

      iter #   3 total cpu time :   963.0 secs   av.it.:   5.0
      thresh= 1.428E-03 alpha_mix =  0.700 |ddv_scf|^2 =  1.016E-08

      iter #   4 total cpu time :   967.0 secs   av.it.:   6.6
      thresh= 1.008E-05 alpha_mix =  0.700 |ddv_scf|^2 =  3.998E-10

     End of self-consistent calculation

     Convergence has been achieved 


     Representation #   9 mode #   9

     Self-consistent Calculation

      iter #   1 total cpu time :   969.6 secs   av.it.:   3.2
      thresh= 1.000E-02 alpha_mix =  0.700 |ddv_scf|^2 =  7.651E-06

      iter #   2 total cpu time :   973.4 secs   av.it.:   6.1
      thresh= 2.766E-04 alpha_mix =  0.700 |ddv_scf|^2 =  9.094E-05

      iter #   3 total cpu time :   976.6 secs   av.it.:   5.0
      thresh= 9.536E-04 alpha_mix =  0.700 |ddv_scf|^2 =  1.292E-08

      iter #   4 total cpu time :   980.5 secs   av.it.:   6.4
      thresh= 1.137E-05 alpha_mix =  0.700 |ddv_scf|^2 =  2.245E-10

     End of self-consistent calculation

     Convergence has been achieved 


     Representation #  10 mode #  10

     Self-consistent Calculation

      iter #   1 total cpu time :   983.5 secs   av.it.:   3.1
      thresh= 1.000E-02 alpha_mix =  0.700 |ddv_scf|^2 =  1.417E-06

      iter #   2 total cpu time :   987.3 secs   av.it.:   6.2
      thresh= 1.190E-04 alpha_mix =  0.700 |ddv_scf|^2 =  1.348E-05

      iter #   3 total cpu time :   990.5 secs   av.it.:   5.0
      thresh= 3.672E-04 alpha_mix =  0.700 |ddv_scf|^2 =  6.216E-08

      iter #   4 total cpu time :   994.1 secs   av.it.:   5.8
      thresh= 2.493E-05 alpha_mix =  0.700 |ddv_scf|^2 =  1.631E-10

     End of self-consistent calculation

     Convergence has been achieved 


     Representation #  11 mode #  11

     Self-consistent Calculation

      iter #   1 total cpu time :   996.7 secs   av.it.:   3.2
      thresh= 1.000E-02 alpha_mix =  0.700 |ddv_scf|^2 =  5.140E-06

      iter #   2 total cpu time :  1000.4 secs   av.it.:   6.1
      thresh= 2.267E-04 alpha_mix =  0.700 |ddv_scf|^2 =  6.121E-05

      iter #   3 total cpu time :  1003.7 secs   av.it.:   5.0
      thresh= 7.824E-04 alpha_mix =  0.700 |ddv_scf|^2 =  1.239E-08

      iter #   4 total cpu time :  1008.1 secs   av.it.:   6.5
      thresh= 1.113E-05 alpha_mix =  0.700 |ddv_scf|^2 =  2.350E-10

     End of self-consistent calculation

     Convergence has been achieved 


     Representation #  12 mode #  12

     Self-consistent Calculation

      iter #   1 total cpu time :  1010.8 secs   av.it.:   3.1
      thresh= 1.000E-02 alpha_mix =  0.700 |ddv_scf|^2 =  4.637E-06

      iter #   2 total cpu time :  1014.6 secs   av.it.:   6.1
      thresh= 2.153E-04 alpha_mix =  0.700 |ddv_scf|^2 =  5.365E-05

      iter #   3 total cpu time :  1017.9 secs   av.it.:   5.0
      thresh= 7.325E-04 alpha_mix =  0.700 |ddv_scf|^2 =  1.400E-08

      iter #   4 total cpu time :  1021.7 secs   av.it.:   6.2
      thresh= 1.183E-05 alpha_mix =  0.700 |ddv_scf|^2 =  1.342E-10

     End of self-consistent calculation

     Convergence has been achieved 


     Representation #  13 mode #  13

     Self-consistent Calculation

      iter #   1 total cpu time :  1024.2 secs   av.it.:   3.1
      thresh= 1.000E-02 alpha_mix =  0.700 |ddv_scf|^2 =  1.004E-06

      iter #   2 total cpu time :  1028.4 secs   av.it.:   6.2
      thresh= 1.002E-04 alpha_mix =  0.700 |ddv_scf|^2 =  9.055E-06

      iter #   3 total cpu time :  1031.7 secs   av.it.:   5.0
      thresh= 3.009E-04 alpha_mix =  0.700 |ddv_scf|^2 =  4.786E-08

      iter #   4 total cpu time :  1035.2 secs   av.it.:   5.7
      thresh= 2.188E-05 alpha_mix =  0.700 |ddv_scf|^2 =  8.101E-11

     End of self-consistent calculation

     Convergence has been achieved 


     Representation #  14 mode #  14

     Self-consistent Calculation

      iter #   1 total cpu time :  1038.0 secs   av.it.:   3.5
      thresh= 1.000E-02 alpha_mix =  0.700 |ddv_scf|^2 =  1.077E-05

      iter #   2 total cpu time :  1041.7 secs   av.it.:   6.1
      thresh= 3.282E-04 alpha_mix =  0.700 |ddv_scf|^2 =  1.261E-04

      iter #   3 total cpu time :  1045.0 secs   av.it.:   5.0
      thresh= 1.123E-03 alpha_mix =  0.700 |ddv_scf|^2 =  2.526E-08

      iter #   4 total cpu time :  1048.7 secs   av.it.:   6.1
      thresh= 1.589E-05 alpha_mix =  0.700 |ddv_scf|^2 =  3.881E-10

     End of self-consistent calculation

     Convergence has been achieved 


     Representation #  15 mode #  15

     Self-consistent Calculation

      iter #   1 total cpu time :  1051.5 secs   av.it.:   3.2
      thresh= 1.000E-02 alpha_mix =  0.700 |ddv_scf|^2 =  1.013E-05

      iter #   2 total cpu time :  1055.7 secs   av.it.:   6.1
      thresh= 3.183E-04 alpha_mix =  0.700 |ddv_scf|^2 =  1.225E-04

      iter #   3 total cpu time :  1058.9 secs   av.it.:   5.0
      thresh= 1.107E-03 alpha_mix =  0.700 |ddv_scf|^2 =  1.032E-08

      iter #   4 total cpu time :  1063.6 secs   av.it.:   6.6
      thresh= 1.016E-05 alpha_mix =  0.700 |ddv_scf|^2 =  2.910E-10

     End of self-consistent calculation

     Convergence has been achieved 


     Representation #  16 mode #  16

     Self-consistent Calculation

      iter #   1 total cpu time :  1066.7 secs   av.it.:   3.3
      thresh= 1.000E-02 alpha_mix =  0.700 |ddv_scf|^2 =  1.360E-05

      iter #   2 total cpu time :  1070.4 secs   av.it.:   6.1
      thresh= 3.687E-04 alpha_mix =  0.700 |ddv_scf|^2 =  1.652E-04

      iter #   3 total cpu time :  1074.3 secs   av.it.:   5.0
      thresh= 1.285E-03 alpha_mix =  0.700 |ddv_scf|^2 =  8.320E-09

     End of self-consistent calculation

     Convergence has been achieved 


     Representation #  17 mode #  17

     Self-consistent Calculation

      iter #   1 total cpu time :  1077.0 secs   av.it.:   3.3
      thresh= 1.000E-02 alpha_mix =  0.700 |ddv_scf|^2 =  1.705E-05

      iter #   2 total cpu time :  1080.8 secs   av.it.:   6.0
      thresh= 4.130E-04 alpha_mix =  0.700 |ddv_scf|^2 =  2.082E-04

      iter #   3 total cpu time :  1084.0 secs   av.it.:   5.0
      thresh= 1.443E-03 alpha_mix =  0.700 |ddv_scf|^2 =  1.124E-08

      iter #   4 total cpu time :  1088.0 secs   av.it.:   6.6
      thresh= 1.060E-05 alpha_mix =  0.700 |ddv_scf|^2 =  4.274E-10

     End of self-consistent calculation

     Convergence has been achieved 


     Representation #  18 mode #  18

     Self-consistent Calculation

      iter #   1 total cpu time :  1090.7 secs   av.it.:   3.5
      thresh= 1.000E-02 alpha_mix =  0.700 |ddv_scf|^2 =  9.386E-06

      iter #   2 total cpu time :  1094.5 secs   av.it.:   6.0
      thresh= 3.064E-04 alpha_mix =  0.700 |ddv_scf|^2 =  1.095E-04

      iter #   3 total cpu time :  1098.2 secs   av.it.:   5.0
      thresh= 1.046E-03 alpha_mix =  0.700 |ddv_scf|^2 =  2.456E-08

      iter #   4 total cpu time :  1101.7 secs   av.it.:   6.1
      thresh= 1.567E-05 alpha_mix =  0.700 |ddv_scf|^2 =  3.683E-10

     End of self-consistent calculation

     Convergence has been achieved 


     Representation #  19 mode #  19

     Self-consistent Calculation

      iter #   1 total cpu time :  1104.3 secs   av.it.:   3.2
      thresh= 1.000E-02 alpha_mix =  0.700 |ddv_scf|^2 =  7.216E-06

      iter #   2 total cpu time :  1107.9 secs   av.it.:   6.1
      thresh= 2.686E-04 alpha_mix =  0.700 |ddv_scf|^2 =  8.539E-05

      iter #   3 total cpu time :  1111.0 secs   av.it.:   5.0
      thresh= 9.241E-04 alpha_mix =  0.700 |ddv_scf|^2 =  1.719E-08

      iter #   4 total cpu time :  1114.6 secs   av.it.:   6.4
      thresh= 1.311E-05 alpha_mix =  0.700 |ddv_scf|^2 =  2.219E-10

     End of self-consistent calculation

     Convergence has been achieved 


     Representation #  20 mode #  20

     Self-consistent Calculation

      iter #   1 total cpu time :  1117.2 secs   av.it.:   3.3
      thresh= 1.000E-02 alpha_mix =  0.700 |ddv_scf|^2 =  1.742E-05

      iter #   2 total cpu time :  1121.3 secs   av.it.:   6.0
      thresh= 4.174E-04 alpha_mix =  0.700 |ddv_scf|^2 =  2.106E-04

      iter #   3 total cpu time :  1124.5 secs   av.it.:   5.0
      thresh= 1.451E-03 alpha_mix =  0.700 |ddv_scf|^2 =  9.971E-09

     End of self-consistent calculation

     Convergence has been achieved 


     Representation #  21 mode #  21

     Self-consistent Calculation

      iter #   1 total cpu time :  1127.0 secs   av.it.:   3.3
      thresh= 1.000E-02 alpha_mix =  0.700 |ddv_scf|^2 =  2.038E-05

      iter #   2 total cpu time :  1130.7 secs   av.it.:   6.0
      thresh= 4.514E-04 alpha_mix =  0.700 |ddv_scf|^2 =  2.469E-04

      iter #   3 total cpu time :  1134.0 secs   av.it.:   5.0
      thresh= 1.571E-03 alpha_mix =  0.700 |ddv_scf|^2 =  1.000E-08

      iter #   4 total cpu time :  1137.8 secs   av.it.:   6.5
      thresh= 1.000E-05 alpha_mix =  0.700 |ddv_scf|^2 =  3.681E-10

     End of self-consistent calculation

     Convergence has been achieved 
 
     Number of q in the star =    2
     List of q in the star:
          1  -0.000002724  -0.000019028   0.433024180
          2   0.000002724   0.000019028  -0.433024180

     Diagonalizing the dynamical matrix

     q = (   -0.000002724  -0.000019028   0.433024180 ) 

 **************************************************************************
     freq (    1) =       5.927940 [THz] =     197.734797 [cm-1]
     freq (    2) =       6.387414 [THz] =     213.061208 [cm-1]
     freq (    3) =       7.078348 [THz] =     236.108290 [cm-1]
     freq (    4) =      15.889231 [THz] =     530.007703 [cm-1]
     freq (    5) =      16.919737 [THz] =     564.381683 [cm-1]
     freq (    6) =      19.613349 [THz] =     654.230910 [cm-1]
     freq (    7) =      21.083130 [THz] =     703.257524 [cm-1]
     freq (    8) =      21.878721 [THz] =     729.795593 [cm-1]
     freq (    9) =      26.474876 [THz] =     883.106791 [cm-1]
     freq (   10) =      28.185395 [THz] =     940.163594 [cm-1]
     freq (   11) =      28.397525 [THz] =     947.239485 [cm-1]
     freq (   12) =      29.504250 [THz] =     984.155856 [cm-1]
     freq (   13) =      31.704052 [THz] =    1057.533332 [cm-1]
     freq (   14) =      34.629373 [THz] =    1155.111536 [cm-1]
     freq (   15) =      35.384253 [THz] =    1180.291620 [cm-1]
     freq (   16) =      37.915234 [THz] =    1264.716077 [cm-1]
     freq (   17) =      39.815103 [THz] =    1328.088871 [cm-1]
     freq (   18) =      44.156638 [THz] =    1472.906893 [cm-1]
     freq (   19) =      46.751366 [THz] =    1559.457705 [cm-1]
     freq (   20) =      55.258547 [THz] =    1843.226714 [cm-1]
     freq (   21) =      64.313146 [THz] =    2145.255640 [cm-1]
 **************************************************************************

     Mode symmetry, C_1 (1)     point group:

     freq (   1-   1) =        197.7  [cm-1]   --> A                  
     freq (   2-   2) =        213.1  [cm-1]   --> A                  
     freq (   3-   3) =        236.1  [cm-1]   --> A                  
     freq (   4-   4) =        530.0  [cm-1]   --> A                  
     freq (   5-   5) =        564.4  [cm-1]   --> A                  
     freq (   6-   6) =        654.2  [cm-1]   --> A                  
     freq (   7-   7) =        703.3  [cm-1]   --> A                  
     freq (   8-   8) =        729.8  [cm-1]   --> A                  
     freq (   9-   9) =        883.1  [cm-1]   --> A                  
     freq (  10-  10) =        940.2  [cm-1]   --> A                  
     freq (  11-  11) =        947.2  [cm-1]   --> A                  
     freq (  12-  12) =        984.2  [cm-1]   --> A                  
     freq (  13-  13) =       1057.5  [cm-1]   --> A                  
     freq (  14-  14) =       1155.1  [cm-1]   --> A                  
     freq (  15-  15) =       1180.3  [cm-1]   --> A                  
     freq (  16-  16) =       1264.7  [cm-1]   --> A                  
     freq (  17-  17) =       1328.1  [cm-1]   --> A                  
     freq (  18-  18) =       1472.9  [cm-1]   --> A                  
     freq (  19-  19) =       1559.5  [cm-1]   --> A                  
     freq (  20-  20) =       1843.2  [cm-1]   --> A                  
     freq (  21-  21) =       2145.3  [cm-1]   --> A                  
 
     init_run     :      0.09s CPU      0.12s WALL (       4 calls)
     electrons    :     70.68s CPU     76.30s WALL (       4 calls)

     Called by init_run:
     wfcinit      :      0.00s CPU      0.01s WALL (       4 calls)
     potinit      :      0.00s CPU      0.01s WALL (       4 calls)
     hinit0       :      0.04s CPU      0.05s WALL (       4 calls)

     Called by electrons:
     c_bands      :     70.08s CPU     75.70s WALL (       4 calls)
     v_of_rho     :      0.00s CPU      0.00s WALL (       5 calls)

     Called by c_bands:
     init_us_2    :      7.68s CPU      8.84s WALL (  250880 calls)
     init_us_2:cp :      7.15s CPU      8.30s WALL (  250880 calls)
     cegterg      :     64.95s CPU     69.03s WALL (    5843 calls)

     Called by *egterg:
     cdiaghg      :     17.33s CPU     18.41s WALL (   92260 calls)
     h_psi        :    615.34s CPU    671.13s WALL ( 1669203 calls)
     g_psi        :      0.22s CPU      0.23s WALL (   88164 calls)

     Called by h_psi:
     h_psi:calbec :     41.96s CPU     45.56s WALL ( 1669203 calls)
     vloc_psi     :    553.20s CPU    603.48s WALL ( 1669203 calls)
     add_vuspsi   :      9.19s CPU     10.23s WALL ( 1669203 calls)

     General routines
     calbec       :     59.83s CPU     65.53s WALL ( 3432815 calls)
     fft          :      0.04s CPU      0.07s WALL (     937 calls)
     ffts         :      3.94s CPU      4.22s WALL (   44772 calls)
     fftw         :    698.17s CPU    766.52s WALL (19940618 calls)
     davcio       :     16.70s CPU     24.00s WALL (  881370 calls)
 
     Parallel routines
 
     PHONON       :  16m45.00s CPU  18m58.05s WALL

     INITIALIZATION: 
     phq_setup    :      0.04s CPU      0.10s WALL (       4 calls)
     phq_init     :      1.07s CPU      1.20s WALL (       4 calls)
 
     phq_init     :      1.07s CPU      1.20s WALL (       4 calls)
     init_vloc    :      0.04s CPU      0.04s WALL (       5 calls)
     init_us_1    :      0.02s CPU      0.03s WALL (       5 calls)
     init_us_2    :      7.68s CPU      8.84s WALL (  250880 calls)
 
     DYNAMICAL MATRIX:
     dynmat0      :      0.82s CPU      0.88s WALL (       4 calls)
     phqscf       :    931.69s CPU   1051.24s WALL (       4 calls)
     dynmatrix    :      0.02s CPU      0.08s WALL (       4 calls)
 
     phqscf       :    931.69s CPU   1051.24s WALL (       4 calls)
     solve_linter :    925.72s CPU   1040.28s WALL (      84 calls)
     drhodv       :      5.89s CPU      6.95s WALL (      84 calls)
 
     dynmat0      :      0.82s CPU      0.88s WALL (       4 calls)
     dynmat_us    :      0.82s CPU      0.86s WALL (       4 calls)
     d2ionq       :      0.01s CPU      0.01s WALL (       4 calls)
 
     dynmat_us    :      0.82s CPU      0.86s WALL (       4 calls)
 
     phqscf       :    931.69s CPU   1051.24s WALL (       4 calls)
     solve_linter :    925.72s CPU   1040.28s WALL (      84 calls)
 
     solve_linter :    925.72s CPU   1040.28s WALL (      84 calls)
     dvqpsi_us    :     32.38s CPU     35.68s WALL (   43008 calls)
     sth_kernel   :    889.55s CPU    982.59s WALL (     306 calls)
     apply_dpot_b :     72.25s CPU     81.70s WALL (  113664 calls)
     ortho        :      5.15s CPU      5.87s WALL (  156672 calls)
     cgsolve      :    670.02s CPU    731.81s WALL (  156672 calls)
     incdrhoscf   :    117.22s CPU    131.07s WALL (  156672 calls)
     dv_of_drho   :      0.04s CPU      0.05s WALL (     306 calls)
     mix_pot      :      0.24s CPU      1.21s WALL (     306 calls)
 
     dvqpsi_us    :     32.38s CPU     35.68s WALL (   43008 calls)
     dvqpsi_us_on :      1.90s CPU      2.09s WALL (   43008 calls)
 
     cgsolve      :    670.02s CPU    731.81s WALL (  156672 calls)
     ch_psi       :    633.22s CPU    691.38s WALL ( 1571100 calls)
 
     ch_psi       :    633.22s CPU    691.38s WALL ( 1571100 calls)
     h_psi        :    615.34s CPU    671.13s WALL ( 1669203 calls)
     last         :     47.65s CPU     52.03s WALL ( 1571100 calls)
 
     h_psi        :    615.34s CPU    671.13s WALL ( 1669203 calls)
     add_vuspsi   :      9.19s CPU     10.23s WALL ( 1669203 calls)
 
     incdrhoscf   :    117.22s CPU    131.07s WALL (  156672 calls)
 
 
      General routines
     calbec       :     59.83s CPU     65.53s WALL ( 3432815 calls)
     fft          :      0.04s CPU      0.07s WALL (     937 calls)
     ffts         :      3.94s CPU      4.22s WALL (   44772 calls)
     fftw         :    698.17s CPU    766.52s WALL (19940618 calls)
     davcio       :     16.70s CPU     24.00s WALL (  881370 calls)
     write_rec    :      0.15s CPU     20.51s WALL (     390 calls)
 
 
     PHONON       :  16m45.01s CPU  18m58.05s WALL

 
   This run was terminated on:   2:46:22  31May2022            

=------------------------------------------------------------------------------=
   JOB DONE.
=------------------------------------------------------------------------------=
