
     Program PHONON v.7.0 starts on 29May2022 at  6:23:59 

     This program is part of the open-source Quantum ESPRESSO suite
     for quantum simulation of materials; please cite
         "P. Giannozzi et al., J. Phys.:Condens. Matter 21 395502 (2009);
         "P. Giannozzi et al., J. Phys.:Condens. Matter 29 465901 (2017);
         "P. Giannozzi et al., J. Chem. Phys. 152 154105 (2020);
          URL http://www.quantum-espresso.org", 
     in publications or presentations arising from this work. More details at
     http://www.quantum-espresso.org/quote

     Parallel version (MPI), running on    20 processors

     MPI processes distributed on     1 nodes
     R & G space division:  proc/nbgrp/npool/nimage =      20
     296152 MiB available memory on the printing compute node when the environment starts
 
     Reading input from /home/mgrebenyuk/QE/Examples/LaYH20/190GPa/4x4x4/elph.in

     Reading xml data from directory:

     ./LaYH20.save/

     IMPORTANT: XC functional enforced from input :
     Exchange-correlation= PZ
                           (   1   1   0   0   0   0   0)
     Any further DFT definition will be discarded
     Please, verify this is what you really want

 
     Parallelization info
     --------------------
     sticks:   dense  smooth     PW     G-vecs:    dense   smooth      PW
     Min          87      87     27                 1834     1834     318
     Max          88      88     28                 1835     1835     321
     Sum        1751    1751    543                36689    36689    6369
 
     Using Slab Decomposition
 
     Reading collected, re-writing distributed wavefunctions


     Dynamical matrices for ( 4, 4, 4)  uniform grid of q-points
     With a half shift
     (  10 q-points):
       N         xq(1)         xq(2)         xq(3) 
       1   0.000000000   0.000000000   0.132839399
       2  -0.426471750  -0.246223580   0.221398998
       3   0.852943501   0.492447160  -0.044279800
       4   0.426471750   0.246223580   0.044279800
       5  -0.426471750   0.246223580   0.309958597
       6   0.852943501   0.984894319   0.044279800
       7   0.426471750   0.738670740   0.132839399
       8   0.852943501  -0.492447160  -0.221398998
       9   0.000000000   0.000000000   0.398518196
      10   1.279415251   0.738670740   0.132839399
     Because shifted q grid is used, q2r will not work !

     Saving dvscf to file. Distribute only q points, not irreducible represetations.

     Calculation of q =    0.0000000   0.0000000   0.1328394

     Subspace diagonalization in iterative solution of the eigenvalue problem:
     a serial algorithm will be used

     [opt_tetra]  Optimized tetrahedron method is used.
 
     Parallelization info
     --------------------
     sticks:   dense  smooth     PW     G-vecs:    dense   smooth      PW
     Min          87      87     27                 1834     1834     319
     Max          88      88     28                 1835     1835     321
     Sum        1751    1751    547                36689    36689    6387
 
     Using Slab Decomposition
 

     Title: 
      Electron-phonon for LaYH20                                                


     bravais-lattice index     =            5
     lattice parameter (alat)  =      11.0632  a.u.
     unit-cell volume          =     379.1881 (a.u.)^3
     number of atoms/cell      =           22
     number of atomic types    =            3
     number of electrons       =        34.00
     number of Kohn-Sham states=           21
     kinetic-energy cutoff     =      80.0000  Ry
     charge density cutoff     =     320.0000  Ry
     Exchange-correlation= PZ
                           (   1   1   0   0   0   0   0)

     celldm(1)=  11.063193  celldm(2)=   0.000000  celldm(3)=   0.000000
     celldm(4)=   0.828182  celldm(5)=   0.000000  celldm(6)=   0.000000

     crystal axes: (cart. coord. in units of alat)
               a(1) = (   0.293103  -0.169223   0.940986 )  
               a(2) = (   0.000000   0.338446   0.940986 )  
               a(3) = (  -0.293103  -0.169223   0.940986 )  

     reciprocal axes: (cart. coord. in units 2 pi/alat)
               b(1) = (  1.705887 -0.984894  0.354238 )  
               b(2) = (  0.000000  1.969789  0.354238 )  
               b(3) = ( -1.705887 -0.984894  0.354238 )  


     PseudoPot. # 1 for La read from file:
     ./La.UPF
     MD5 check sum: 8e5991bce12d7f16f732aa20d6589152
     Pseudo is Norm-conserving, Zval = 11.0
     Generated in analytical, separable form
     Using radial grid of 1253 points,  7 beta functions with: 
                l(1) =   0
                l(2) =   0
                l(3) =   1
                l(4) =   1
                l(5) =   1
                l(6) =   2
                l(7) =   3

     PseudoPot. # 2 for H  read from file:
     ./H.UPF
     MD5 check sum: df8e43189db5a2d7f03d0dd74d71ce72
     Pseudo is Norm-conserving, Zval =  1.0
     Generated in analytical, separable form
     Using radial grid of  929 points,  0 beta functions with: 

     PseudoPot. # 3 for Y  read from file:
     ./Y.UPF
     MD5 check sum: 28b92b02874aa0fef5f1b1d2b706803c
     Pseudo is Norm-conserving, Zval =  3.0
     Generated in analytical, separable form
     Using radial grid of 1223 points,  7 beta functions with: 
                l(1) =   0
                l(2) =   0
                l(3) =   0
                l(4) =   1
                l(5) =   1
                l(6) =   2
                l(7) =   2

     atomic species   valence    mass     pseudopotential
        La            11.00   138.90547     La( 1.00)
        H              1.00     1.00794     H ( 1.00)
        Y              3.00    88.90585     Y ( 1.00)

     12 Sym. Ops., with inversion, found



   Cartesian axes

     site n.     atom                  positions (alat units)
         1           La  tau(   1) = (   0.0000000  -0.0000000   1.4114788  )
         2           Y   tau(   2) = (   0.0000000   0.0000000   0.0000000  )
         3           H   tau(   3) = (  -0.1429213   0.0825157   2.1619650  )
         4           H   tau(   4) = (   0.0000000  -0.1650314   2.1619650  )
         5           H   tau(   5) = (   0.1429213   0.0825157   2.1619650  )
         6           H   tau(   6) = (  -0.1429213  -0.0825157   0.6609927  )
         7           H   tau(   7) = (   0.0000000   0.1650314   0.6609927  )
         8           H   tau(   8) = (   0.1429213  -0.0825157   0.6609927  )
         9           H   tau(   9) = (   0.1519649  -0.0877370   1.7196022  )
        10           H   tau(  10) = (   0.0000000   0.1754740   1.7196022  )
        11           H   tau(  11) = (  -0.1519649  -0.0877370   1.7196022  )
        12           H   tau(  12) = (   0.1519649   0.0877370   1.1033554  )
        13           H   tau(  13) = (   0.0000000  -0.1754740   1.1033554  )
        14           H   tau(  14) = (  -0.1519649   0.0877370   1.1033554  )
        15           H   tau(  15) = (   0.0000000  -0.0000000   2.2801626  )
        16           H   tau(  16) = (   0.0000000  -0.0000000   0.5427951  )
        17           H   tau(  17) = (   0.0000000  -0.0000000   1.9453439  )
        18           H   tau(  18) = (   0.0000000  -0.0000000   0.8776138  )
        19           H   tau(  19) = (   0.0000000  -0.0000000   2.4757085  )
        20           H   tau(  20) = (   0.0000000  -0.0000000   0.3472491  )
        21           H   tau(  21) = (   0.0000000  -0.0000000   1.0612670  )
        22           H   tau(  22) = (   0.0000000  -0.0000000   1.7616907  )

     number of k points=   728 (tetrahedron method)

     Number of k-points >= 100: set verbosity='high' to print them.

     Dense  grid:    36689 G-vectors     FFT dimensions: (  64,  64,  64)

     Estimated max dynamical RAM per process >      10.65 MB

     Estimated total dynamical RAM >     212.97 MB

     The potential is recalculated from file :
     ./_ph0/LaYH20.q_1/LaYH20.save/charge-density

     Starting wfcs are   20 atomic +    1 random wfcs

     Band Structure Calculation
     Davidson diagonalization with overlap
     c_bands:  1 eigenvalues not converged
     c_bands:  1 eigenvalues not converged
     c_bands:  1 eigenvalues not converged
     c_bands:  1 eigenvalues not converged
     c_bands:  1 eigenvalues not converged
     c_bands:  1 eigenvalues not converged
     c_bands:  1 eigenvalues not converged
     c_bands:  1 eigenvalues not converged
     c_bands:  1 eigenvalues not converged

     ethr =  2.94E-11,  avg # of iterations = 50.4

     total cpu time spent up to now is      192.5 secs

     End of band structure calculation

     Number of k-points >= 100: set verbosity='high' to print the bands.

     the Fermi energy is    16.9183 ev

     Writing config to output data dir ./_ph0/LaYH20.q_1/LaYH20.save/
 
     [dfpt_tetra]  Dos(E_F)[/Ry] :   0.2137185E+02

      Electron-phonon for LaYH20                                                

     bravais-lattice index     =            5
     lattice parameter (alat)  =      11.0632  a.u.
     unit-cell volume          =     379.1881 (a.u.)^3
     number of atoms/cell      =           22
     number of atomic types    =            3
     kinetic-energy cut-off    =      80.0000  Ry
     charge density cut-off    =     320.0000  Ry
     convergence threshold     =      1.0E-08
     beta                      =       0.7000
     number of iterations used =            4
     Exchange-correlation= PZ
                           (   1   1   0   0   0   0   0)


     celldm(1)=   11.06319  celldm(2)=    0.00000  celldm(3)=    0.00000
     celldm(4)=    0.82818  celldm(5)=    0.00000  celldm(6)=    0.00000

     crystal axes: (cart. coord. in units of alat)
               a(1) = (  0.2931 -0.1692  0.9410 )  
               a(2) = (  0.0000  0.3384  0.9410 )  
               a(3) = ( -0.2931 -0.1692  0.9410 )  

     reciprocal axes: (cart. coord. in units 2 pi/alat)
               b(1) = (  1.7059 -0.9849  0.3542 )  
               b(2) = (  0.0000  1.9698  0.3542 )  
               b(3) = ( -1.7059 -0.9849  0.3542 )  


     Atoms inside the unit cell: 

     Cartesian axes

     site n.  atom      mass           positions (alat units)
        1     La 138.9055   tau(    1) = (    0.00000   -0.00000    1.41148  )
        2     Y   88.9059   tau(    2) = (    0.00000    0.00000    0.00000  )
        3     H    1.0079   tau(    3) = (   -0.14292    0.08252    2.16197  )
        4     H    1.0079   tau(    4) = (    0.00000   -0.16503    2.16197  )
        5     H    1.0079   tau(    5) = (    0.14292    0.08252    2.16197  )
        6     H    1.0079   tau(    6) = (   -0.14292   -0.08252    0.66099  )
        7     H    1.0079   tau(    7) = (    0.00000    0.16503    0.66099  )
        8     H    1.0079   tau(    8) = (    0.14292   -0.08252    0.66099  )
        9     H    1.0079   tau(    9) = (    0.15196   -0.08774    1.71960  )
       10     H    1.0079   tau(   10) = (    0.00000    0.17547    1.71960  )
       11     H    1.0079   tau(   11) = (   -0.15196   -0.08774    1.71960  )
       12     H    1.0079   tau(   12) = (    0.15196    0.08774    1.10336  )
       13     H    1.0079   tau(   13) = (    0.00000   -0.17547    1.10336  )
       14     H    1.0079   tau(   14) = (   -0.15196    0.08774    1.10336  )
       15     H    1.0079   tau(   15) = (    0.00000   -0.00000    2.28016  )
       16     H    1.0079   tau(   16) = (    0.00000   -0.00000    0.54280  )
       17     H    1.0079   tau(   17) = (    0.00000   -0.00000    1.94534  )
       18     H    1.0079   tau(   18) = (    0.00000   -0.00000    0.87761  )
       19     H    1.0079   tau(   19) = (    0.00000   -0.00000    2.47571  )
       20     H    1.0079   tau(   20) = (    0.00000   -0.00000    0.34725  )
       21     H    1.0079   tau(   21) = (    0.00000   -0.00000    1.06127  )
       22     H    1.0079   tau(   22) = (    0.00000   -0.00000    1.76169  )

     Computing dynamical matrix for 
                    q = (   0.0000000   0.0000000   0.1328394 )
 
      6 Sym.Ops. (no q -> -q+G )


     G cutoff =  992.0904  (   1835 G-vectors)     FFT grid: ( 64, 64, 64)
     number of k points=   728

     PseudoPot. # 1 for La read from file:
     ./La.UPF
     MD5 check sum: 8e5991bce12d7f16f732aa20d6589152
     Pseudo is Norm-conserving, Zval = 11.0
     Generated in analytical, separable form
     Using radial grid of 1253 points,  7 beta functions with: 
                l(1) =   0
                l(2) =   0
                l(3) =   1
                l(4) =   1
                l(5) =   1
                l(6) =   2
                l(7) =   3

     PseudoPot. # 2 for H  read from file:
     ./H.UPF
     MD5 check sum: df8e43189db5a2d7f03d0dd74d71ce72
     Pseudo is Norm-conserving, Zval =  1.0
     Generated in analytical, separable form
     Using radial grid of  929 points,  0 beta functions with: 

     PseudoPot. # 3 for Y  read from file:
     ./Y.UPF
     MD5 check sum: 28b92b02874aa0fef5f1b1d2b706803c
     Pseudo is Norm-conserving, Zval =  3.0
     Generated in analytical, separable form
     Using radial grid of 1223 points,  7 beta functions with: 
                l(1) =   0
                l(2) =   0
                l(3) =   0
                l(4) =   1
                l(5) =   1
                l(6) =   2
                l(7) =   2

     Mode symmetry, C_3v (3m)   point group:


     Atomic displacements:
     There are   44 irreducible representations

     Representation     1      1 modes -  To be done

     Representation     2      1 modes -  To be done

     Representation     3      1 modes -  To be done

     Representation     4      1 modes -  To be done

     Representation     5      1 modes -  To be done

     Representation     6      1 modes -  To be done

     Representation     7      1 modes -  To be done

     Representation     8      1 modes -  To be done

     Representation     9      1 modes -  To be done

     Representation    10      1 modes -  To be done

     Representation    11      1 modes -  To be done

     Representation    12      1 modes -  To be done

     Representation    13      1 modes -  To be done

     Representation    14      1 modes -  To be done

     Representation    15      1 modes -  To be done

     Representation    16      1 modes -  To be done

     Representation    17      1 modes -  To be done

     Representation    18      1 modes -  To be done

     Representation    19      1 modes -  To be done

     Representation    20      1 modes -  To be done

     Representation    21      1 modes -  To be done

     Representation    22      1 modes -  To be done

     Representation    23      2 modes -  To be done

     Representation    24      2 modes -  To be done

     Representation    25      2 modes -  To be done

     Representation    26      2 modes -  To be done

     Representation    27      2 modes -  To be done

     Representation    28      2 modes -  To be done

     Representation    29      2 modes -  To be done

     Representation    30      2 modes -  To be done

     Representation    31      2 modes -  To be done

     Representation    32      2 modes -  To be done

     Representation    33      2 modes -  To be done

     Representation    34      2 modes -  To be done

     Representation    35      2 modes -  To be done

     Representation    36      2 modes -  To be done

     Representation    37      2 modes -  To be done

     Representation    38      2 modes -  To be done

     Representation    39      2 modes -  To be done

     Representation    40      2 modes -  To be done

     Representation    41      2 modes -  To be done

     Representation    42      2 modes -  To be done

     Representation    43      2 modes -  To be done

     Representation    44      2 modes -  To be done


     PHONON       :   3m 7.14s CPU   3m14.31s WALL

     Reading dVscf from file dv
     Reading dynamics matrix from file LaYH20.dyn1

     Diagonalizing the dynamical matrix

     q = (    0.000000000   0.000000000   0.132839399 ) 

 **************************************************************************
     freq (    1) =    -109.502880 [THz] =   -3652.622923 [cm-1]
     freq (    2) =    -109.502880 [THz] =   -3652.622909 [cm-1]
     freq (    3) =     -96.429714 [THz] =   -3216.549047 [cm-1]
     freq (    4) =     -96.429713 [THz] =   -3216.549012 [cm-1]
     freq (    5) =     -89.012124 [THz] =   -2969.124851 [cm-1]
     freq (    6) =     -89.012123 [THz] =   -2969.124821 [cm-1]
     freq (    7) =     -85.850223 [THz] =   -2863.655208 [cm-1]
     freq (    8) =     -85.850223 [THz] =   -2863.655204 [cm-1]
     freq (    9) =     -81.494376 [THz] =   -2718.359763 [cm-1]
     freq (   10) =     -81.494375 [THz] =   -2718.359750 [cm-1]
     freq (   11) =     -61.440646 [THz] =   -2049.439333 [cm-1]
     freq (   12) =     -61.440645 [THz] =   -2049.439304 [cm-1]
     freq (   13) =     -52.735173 [THz] =   -1759.056031 [cm-1]
     freq (   14) =     -52.735172 [THz] =   -1759.055991 [cm-1]
     freq (   15) =     -49.828374 [THz] =   -1662.095660 [cm-1]
     freq (   16) =     -49.828374 [THz] =   -1662.095650 [cm-1]
     freq (   17) =     -41.277676 [THz] =   -1376.875050 [cm-1]
     freq (   18) =     -41.277675 [THz] =   -1376.875047 [cm-1]
     freq (   19) =     -41.201707 [THz] =   -1374.341017 [cm-1]
     freq (   20) =     -40.523461 [THz] =   -1351.717176 [cm-1]
     freq (   21) =     -40.523459 [THz] =   -1351.717107 [cm-1]
     freq (   22) =     -39.608116 [THz] =   -1321.184532 [cm-1]
     freq (   23) =     -27.040649 [THz] =    -901.978958 [cm-1]
     freq (   24) =     -27.040649 [THz] =    -901.978952 [cm-1]
     freq (   25) =     -21.563197 [THz] =    -719.270838 [cm-1]
     freq (   26) =     -21.563192 [THz] =    -719.270649 [cm-1]
     freq (   27) =       2.665993 [THz] =      88.927958 [cm-1]
     freq (   28) =       2.665993 [THz] =      88.927963 [cm-1]
     freq (   29) =       4.416684 [THz] =     147.324717 [cm-1]
     freq (   30) =       5.663492 [THz] =     188.913758 [cm-1]
     freq (   31) =      13.075520 [THz] =     436.152392 [cm-1]
     freq (   32) =      13.416614 [THz] =     447.530067 [cm-1]
     freq (   33) =      13.416614 [THz] =     447.530076 [cm-1]
     freq (   34) =      16.362043 [THz] =     545.779014 [cm-1]
     freq (   35) =      16.362048 [THz] =     545.779175 [cm-1]
     freq (   36) =      20.245861 [THz] =     675.329229 [cm-1]
     freq (   37) =      20.930862 [THz] =     698.178407 [cm-1]
     freq (   38) =      20.930863 [THz] =     698.178431 [cm-1]
     freq (   39) =      23.389518 [THz] =     780.190347 [cm-1]
     freq (   40) =      25.227154 [THz] =     841.487264 [cm-1]
     freq (   41) =      25.227155 [THz] =     841.487310 [cm-1]
     freq (   42) =      26.832761 [THz] =     895.044569 [cm-1]
     freq (   43) =      28.141121 [THz] =     938.686751 [cm-1]
     freq (   44) =      30.245484 [THz] =    1008.880749 [cm-1]
     freq (   45) =      30.495837 [THz] =    1017.231632 [cm-1]
     freq (   46) =      30.495838 [THz] =    1017.231664 [cm-1]
     freq (   47) =      31.724063 [THz] =    1058.200837 [cm-1]
     freq (   48) =      31.724064 [THz] =    1058.200862 [cm-1]
     freq (   49) =      32.263185 [THz] =    1076.184026 [cm-1]
     freq (   50) =      32.263186 [THz] =    1076.184028 [cm-1]
     freq (   51) =      32.691863 [THz] =    1090.483181 [cm-1]
     freq (   52) =      32.836502 [THz] =    1095.307808 [cm-1]
     freq (   53) =      35.093479 [THz] =    1170.592469 [cm-1]
     freq (   54) =      36.285162 [THz] =    1210.342729 [cm-1]
     freq (   55) =      36.285163 [THz] =    1210.342745 [cm-1]
     freq (   56) =      37.429928 [THz] =    1248.528002 [cm-1]
     freq (   57) =      37.429928 [THz] =    1248.528020 [cm-1]
     freq (   58) =      39.865341 [THz] =    1329.764624 [cm-1]
     freq (   59) =      43.234931 [THz] =    1442.162064 [cm-1]
     freq (   60) =      46.409818 [THz] =    1548.064891 [cm-1]
     freq (   61) =      52.978832 [THz] =    1767.183615 [cm-1]
     freq (   62) =      54.339261 [THz] =    1812.562656 [cm-1]
     freq (   63) =      57.682919 [THz] =    1924.095079 [cm-1]
     freq (   64) =      58.935816 [THz] =    1965.887219 [cm-1]
     freq (   65) =      61.573944 [THz] =    2053.885703 [cm-1]
     freq (   66) =      70.767850 [THz] =    2360.561384 [cm-1]
 **************************************************************************

     [elph_tetra]   Lowest band which contains FS :         15
     [elph_tetra]  Highest band which contains FS :         20
     [elph_tetra]    # of bands which contains FS :          6
 
     Tetrahedron method
     DOS = 10.685926 states/spin/Ry/Unit Cell at Ef= 16.918340 eV
     double delta at Ef =241.928590
     lambda(    1)=  0.0000   gamma=    0.00 GHz
     lambda(    2)=  0.0000   gamma=    0.00 GHz
     lambda(    3)=  0.0000   gamma=    0.00 GHz
     lambda(    4)=  0.0000   gamma=    0.00 GHz
     lambda(    5)=  0.0000   gamma=    0.00 GHz
     lambda(    6)=  0.0000   gamma=    0.00 GHz
     lambda(    7)=  0.0000   gamma=    0.00 GHz
     lambda(    8)=  0.0000   gamma=    0.00 GHz
     lambda(    9)=  0.0000   gamma=    0.00 GHz
     lambda(   10)=  0.0000   gamma=    0.00 GHz
     lambda(   11)=  0.0000   gamma=    0.00 GHz
     lambda(   12)=  0.0000   gamma=    0.00 GHz
     lambda(   13)=  0.0000   gamma=    0.00 GHz
     lambda(   14)=  0.0000   gamma=    0.00 GHz
     lambda(   15)=  0.0000   gamma=    0.00 GHz
     lambda(   16)=  0.0000   gamma=    0.00 GHz
     lambda(   17)=  0.0000   gamma=    0.00 GHz
     lambda(   18)=  0.0000   gamma=    0.00 GHz
     lambda(   19)=  0.0000   gamma=    0.00 GHz
     lambda(   20)=  0.0000   gamma=    0.00 GHz
     lambda(   21)=  0.0000   gamma=    0.00 GHz
     lambda(   22)=  0.0000   gamma=    0.00 GHz
     lambda(   23)=  0.0000   gamma=    0.00 GHz
     lambda(   24)=  0.0000   gamma=    0.00 GHz
     lambda(   25)=  0.0000   gamma=    0.00 GHz
     lambda(   26)=  0.0000   gamma=    0.00 GHz
     lambda(   27)=  0.1117   gamma=    8.10 GHz
     lambda(   28)=  0.1117   gamma=    8.10 GHz
     lambda(   29)=  0.0364   gamma=    7.24 GHz
     lambda(   30)=  0.0702   gamma=   22.96 GHz
     lambda(   31)=  0.1719   gamma=  299.83 GHz
     lambda(   32)=  0.0049   gamma=    9.00 GHz
     lambda(   33)=  0.0049   gamma=    9.00 GHz
     lambda(   34)=  0.0346   gamma=   94.61 GHz
     lambda(   35)=  0.0346   gamma=   94.61 GHz
     lambda(   36)=  0.0879   gamma=  367.59 GHz
     lambda(   37)=  0.0372   gamma=  166.19 GHz
     lambda(   38)=  0.0372   gamma=  166.19 GHz
     lambda(   39)=  0.0348   gamma=  194.38 GHz
     lambda(   40)=  0.0336   gamma=  218.13 GHz
     lambda(   41)=  0.0336   gamma=  218.13 GHz
     lambda(   42)=  0.0590   gamma=  433.20 GHz
     lambda(   43)=  0.0231   gamma=  186.89 GHz
     lambda(   44)=  0.0468   gamma=  437.16 GHz
     lambda(   45)=  0.0092   gamma=   87.38 GHz
     lambda(   46)=  0.0092   gamma=   87.38 GHz
     lambda(   47)=  0.0059   gamma=   60.33 GHz
     lambda(   48)=  0.0059   gamma=   60.33 GHz
     lambda(   49)=  0.0076   gamma=   80.62 GHz
     lambda(   50)=  0.0076   gamma=   80.62 GHz
     lambda(   51)=  0.0084   gamma=   91.64 GHz
     lambda(   52)=  0.0331   gamma=  364.42 GHz
     lambda(   53)=  0.0259   gamma=  325.29 GHz
     lambda(   54)=  0.0179   gamma=  241.05 GHz
     lambda(   55)=  0.0179   gamma=  241.05 GHz
     lambda(   56)=  0.0053   gamma=   76.31 GHz
     lambda(   57)=  0.0053   gamma=   76.31 GHz
     lambda(   58)=  0.0206   gamma=  333.68 GHz
     lambda(   59)=  0.0166   gamma=  315.96 GHz
     lambda(   60)=  0.0138   gamma=  304.40 GHz
     lambda(   61)=  0.0144   gamma=  412.20 GHz
     lambda(   62)=  0.0177   gamma=  532.70 GHz
     lambda(   63)=  0.0050   gamma=  171.02 GHz
     lambda(   64)=  0.0064   gamma=  225.90 GHz
     lambda(   65)=  0.0055   gamma=  214.60 GHz
     lambda(   66)=  0.0205   gamma= 1049.05 GHz
 
     Number of q in the star =    2
     List of q in the star:
          1   0.000000000   0.000000000   0.132839399
          2   0.000000000   0.000000000  -0.132839399

     Calculation of q =   -0.4264718  -0.2462236   0.2213990
     [opt_tetra]  Optimized tetrahedron method is used.
 
     Parallelization info
     --------------------
     sticks:   dense  smooth     PW     G-vecs:    dense   smooth      PW
     Min          87      87     28                 1834     1834     343
     Max          88      88     29                 1835     1835     345
     Sum        1751    1751    573                36689    36689    6879
 
     Using Slab Decomposition
 

     Title: 
      Electron-phonon for LaYH20                                                


     bravais-lattice index     =            5
     lattice parameter (alat)  =      11.0632  a.u.
     unit-cell volume          =     379.1881 (a.u.)^3
     number of atoms/cell      =           22
     number of atomic types    =            3
     number of electrons       =        34.00
     number of Kohn-Sham states=           21
     kinetic-energy cutoff     =      80.0000  Ry
     charge density cutoff     =     320.0000  Ry
     Exchange-correlation= PZ
                           (   1   1   0   0   0   0   0)

     celldm(1)=  11.063193  celldm(2)=   0.000000  celldm(3)=   0.000000
     celldm(4)=   0.828182  celldm(5)=   0.000000  celldm(6)=   0.000000

     crystal axes: (cart. coord. in units of alat)
               a(1) = (   0.293103  -0.169223   0.940986 )  
               a(2) = (   0.000000   0.338446   0.940986 )  
               a(3) = (  -0.293103  -0.169223   0.940986 )  

     reciprocal axes: (cart. coord. in units 2 pi/alat)
               b(1) = (  1.705887 -0.984894  0.354238 )  
               b(2) = (  0.000000  1.969789  0.354238 )  
               b(3) = ( -1.705887 -0.984894  0.354238 )  


     PseudoPot. # 1 for La read from file:
     ./La.UPF
     MD5 check sum: 8e5991bce12d7f16f732aa20d6589152
     Pseudo is Norm-conserving, Zval = 11.0
     Generated in analytical, separable form
     Using radial grid of 1253 points,  7 beta functions with: 
                l(1) =   0
                l(2) =   0
                l(3) =   1
                l(4) =   1
                l(5) =   1
                l(6) =   2
                l(7) =   3

     PseudoPot. # 2 for H  read from file:
     ./H.UPF
     MD5 check sum: df8e43189db5a2d7f03d0dd74d71ce72
     Pseudo is Norm-conserving, Zval =  1.0
     Generated in analytical, separable form
     Using radial grid of  929 points,  0 beta functions with: 

     PseudoPot. # 3 for Y  read from file:
     ./Y.UPF
     MD5 check sum: 28b92b02874aa0fef5f1b1d2b706803c
     Pseudo is Norm-conserving, Zval =  3.0
     Generated in analytical, separable form
     Using radial grid of 1223 points,  7 beta functions with: 
                l(1) =   0
                l(2) =   0
                l(3) =   0
                l(4) =   1
                l(5) =   1
                l(6) =   2
                l(7) =   2

     atomic species   valence    mass     pseudopotential
        La            11.00   138.90547     La( 1.00)
        H              1.00     1.00794     H ( 1.00)
        Y              3.00    88.90585     Y ( 1.00)

     12 Sym. Ops., with inversion, found



   Cartesian axes

     site n.     atom                  positions (alat units)
         1           La  tau(   1) = (   0.0000000  -0.0000000   1.4114788  )
         2           Y   tau(   2) = (   0.0000000   0.0000000   0.0000000  )
         3           H   tau(   3) = (  -0.1429213   0.0825157   2.1619650  )
         4           H   tau(   4) = (   0.0000000  -0.1650314   2.1619650  )
         5           H   tau(   5) = (   0.1429213   0.0825157   2.1619650  )
         6           H   tau(   6) = (  -0.1429213  -0.0825157   0.6609927  )
         7           H   tau(   7) = (   0.0000000   0.1650314   0.6609927  )
         8           H   tau(   8) = (   0.1429213  -0.0825157   0.6609927  )
         9           H   tau(   9) = (   0.1519649  -0.0877370   1.7196022  )
        10           H   tau(  10) = (   0.0000000   0.1754740   1.7196022  )
        11           H   tau(  11) = (  -0.1519649  -0.0877370   1.7196022  )
        12           H   tau(  12) = (   0.1519649   0.0877370   1.1033554  )
        13           H   tau(  13) = (   0.0000000  -0.1754740   1.1033554  )
        14           H   tau(  14) = (  -0.1519649   0.0877370   1.1033554  )
        15           H   tau(  15) = (   0.0000000  -0.0000000   2.2801626  )
        16           H   tau(  16) = (   0.0000000  -0.0000000   0.5427951  )
        17           H   tau(  17) = (   0.0000000  -0.0000000   1.9453439  )
        18           H   tau(  18) = (   0.0000000  -0.0000000   0.8776138  )
        19           H   tau(  19) = (   0.0000000  -0.0000000   2.4757085  )
        20           H   tau(  20) = (   0.0000000  -0.0000000   0.3472491  )
        21           H   tau(  21) = (   0.0000000  -0.0000000   1.0612670  )
        22           H   tau(  22) = (   0.0000000  -0.0000000   1.7616907  )

     number of k points=  1872 (tetrahedron method)

     Number of k-points >= 100: set verbosity='high' to print them.

     Dense  grid:    36689 G-vectors     FFT dimensions: (  64,  64,  64)

     Estimated max dynamical RAM per process >      10.75 MB

     Estimated total dynamical RAM >     215.03 MB

     The potential is recalculated from file :
     ./_ph0/LaYH20.q_2/LaYH20.save/charge-density

     Starting wfcs are   20 atomic +    1 random wfcs

     Band Structure Calculation
     Davidson diagonalization with overlap
     c_bands:  1 eigenvalues not converged
     c_bands:  1 eigenvalues not converged
     c_bands:  1 eigenvalues not converged
     c_bands:  1 eigenvalues not converged
     c_bands:  1 eigenvalues not converged
     c_bands:  1 eigenvalues not converged
     c_bands:  1 eigenvalues not converged
     c_bands:  1 eigenvalues not converged
     c_bands:  1 eigenvalues not converged
     c_bands:  1 eigenvalues not converged
     c_bands:  1 eigenvalues not converged
     c_bands:  1 eigenvalues not converged
     c_bands:  1 eigenvalues not converged
     c_bands:  1 eigenvalues not converged
     c_bands:  1 eigenvalues not converged
     c_bands:  1 eigenvalues not converged
     c_bands:  1 eigenvalues not converged
     c_bands:  1 eigenvalues not converged
     c_bands:  1 eigenvalues not converged
     c_bands:  1 eigenvalues not converged
     c_bands:  1 eigenvalues not converged
     c_bands:  1 eigenvalues not converged
     c_bands:  1 eigenvalues not converged

     ethr =  2.94E-11,  avg # of iterations = 50.9

     total cpu time spent up to now is      689.3 secs

     End of band structure calculation

     Number of k-points >= 100: set verbosity='high' to print the bands.

     the Fermi energy is    16.9183 ev

     Writing config to output data dir ./_ph0/LaYH20.q_2/LaYH20.save/
 
     [dfpt_tetra]  Dos(E_F)[/Ry] :   0.2137185E+02

      Electron-phonon for LaYH20                                                

     bravais-lattice index     =            5
     lattice parameter (alat)  =      11.0632  a.u.
     unit-cell volume          =     379.1881 (a.u.)^3
     number of atoms/cell      =           22
     number of atomic types    =            3
     kinetic-energy cut-off    =      80.0000  Ry
     charge density cut-off    =     320.0000  Ry
     convergence threshold     =      1.0E-08
     beta                      =       0.7000
     number of iterations used =            4
     Exchange-correlation= PZ
                           (   1   1   0   0   0   0   0)


     celldm(1)=   11.06319  celldm(2)=    0.00000  celldm(3)=    0.00000
     celldm(4)=    0.82818  celldm(5)=    0.00000  celldm(6)=    0.00000

     crystal axes: (cart. coord. in units of alat)
               a(1) = (  0.2931 -0.1692  0.9410 )  
               a(2) = (  0.0000  0.3384  0.9410 )  
               a(3) = ( -0.2931 -0.1692  0.9410 )  

     reciprocal axes: (cart. coord. in units 2 pi/alat)
               b(1) = (  1.7059 -0.9849  0.3542 )  
               b(2) = (  0.0000  1.9698  0.3542 )  
               b(3) = ( -1.7059 -0.9849  0.3542 )  


     Atoms inside the unit cell: 

     Cartesian axes

     site n.  atom      mass           positions (alat units)
        1     La 138.9055   tau(    1) = (    0.00000   -0.00000    1.41148  )
        2     Y   88.9059   tau(    2) = (    0.00000    0.00000    0.00000  )
        3     H    1.0079   tau(    3) = (   -0.14292    0.08252    2.16197  )
        4     H    1.0079   tau(    4) = (    0.00000   -0.16503    2.16197  )
        5     H    1.0079   tau(    5) = (    0.14292    0.08252    2.16197  )
        6     H    1.0079   tau(    6) = (   -0.14292   -0.08252    0.66099  )
        7     H    1.0079   tau(    7) = (    0.00000    0.16503    0.66099  )
        8     H    1.0079   tau(    8) = (    0.14292   -0.08252    0.66099  )
        9     H    1.0079   tau(    9) = (    0.15196   -0.08774    1.71960  )
       10     H    1.0079   tau(   10) = (    0.00000    0.17547    1.71960  )
       11     H    1.0079   tau(   11) = (   -0.15196   -0.08774    1.71960  )
       12     H    1.0079   tau(   12) = (    0.15196    0.08774    1.10336  )
       13     H    1.0079   tau(   13) = (    0.00000   -0.17547    1.10336  )
       14     H    1.0079   tau(   14) = (   -0.15196    0.08774    1.10336  )
       15     H    1.0079   tau(   15) = (    0.00000   -0.00000    2.28016  )
       16     H    1.0079   tau(   16) = (    0.00000   -0.00000    0.54280  )
       17     H    1.0079   tau(   17) = (    0.00000   -0.00000    1.94534  )
       18     H    1.0079   tau(   18) = (    0.00000   -0.00000    0.87761  )
       19     H    1.0079   tau(   19) = (    0.00000   -0.00000    2.47571  )
       20     H    1.0079   tau(   20) = (    0.00000   -0.00000    0.34725  )
       21     H    1.0079   tau(   21) = (    0.00000   -0.00000    1.06127  )
       22     H    1.0079   tau(   22) = (    0.00000   -0.00000    1.76169  )

     Computing dynamical matrix for 
                    q = (  -0.4264718  -0.2462236   0.2213990 )
 
      2 Sym.Ops. (no q -> -q+G )


     G cutoff =  992.0904  (   1835 G-vectors)     FFT grid: ( 64, 64, 64)
     number of k points=  1872

     PseudoPot. # 1 for La read from file:
     ./La.UPF
     MD5 check sum: 8e5991bce12d7f16f732aa20d6589152
     Pseudo is Norm-conserving, Zval = 11.0
     Generated in analytical, separable form
     Using radial grid of 1253 points,  7 beta functions with: 
                l(1) =   0
                l(2) =   0
                l(3) =   1
                l(4) =   1
                l(5) =   1
                l(6) =   2
                l(7) =   3

     PseudoPot. # 2 for H  read from file:
     ./H.UPF
     MD5 check sum: df8e43189db5a2d7f03d0dd74d71ce72
     Pseudo is Norm-conserving, Zval =  1.0
     Generated in analytical, separable form
     Using radial grid of  929 points,  0 beta functions with: 

     PseudoPot. # 3 for Y  read from file:
     ./Y.UPF
     MD5 check sum: 28b92b02874aa0fef5f1b1d2b706803c
     Pseudo is Norm-conserving, Zval =  3.0
     Generated in analytical, separable form
     Using radial grid of 1223 points,  7 beta functions with: 
                l(1) =   0
                l(2) =   0
                l(3) =   0
                l(4) =   1
                l(5) =   1
                l(6) =   2
                l(7) =   2

     Mode symmetry, C_s (m)     point group:


     Atomic displacements:
     There are   66 irreducible representations

     Representation     1      1 modes -  To be done

     Representation     2      1 modes -  To be done

     Representation     3      1 modes -  To be done

     Representation     4      1 modes -  To be done

     Representation     5      1 modes -  To be done

     Representation     6      1 modes -  To be done

     Representation     7      1 modes -  To be done

     Representation     8      1 modes -  To be done

     Representation     9      1 modes -  To be done

     Representation    10      1 modes -  To be done

     Representation    11      1 modes -  To be done

     Representation    12      1 modes -  To be done

     Representation    13      1 modes -  To be done

     Representation    14      1 modes -  To be done

     Representation    15      1 modes -  To be done

     Representation    16      1 modes -  To be done

     Representation    17      1 modes -  To be done

     Representation    18      1 modes -  To be done

     Representation    19      1 modes -  To be done

     Representation    20      1 modes -  To be done

     Representation    21      1 modes -  To be done

     Representation    22      1 modes -  To be done

     Representation    23      1 modes -  To be done

     Representation    24      1 modes -  To be done

     Representation    25      1 modes -  To be done

     Representation    26      1 modes -  To be done

     Representation    27      1 modes -  To be done

     Representation    28      1 modes -  To be done

     Representation    29      1 modes -  To be done

     Representation    30      1 modes -  To be done

     Representation    31      1 modes -  To be done

     Representation    32      1 modes -  To be done

     Representation    33      1 modes -  To be done

     Representation    34      1 modes -  To be done

     Representation    35      1 modes -  To be done

     Representation    36      1 modes -  To be done

     Representation    37      1 modes -  To be done

     Representation    38      1 modes -  To be done

     Representation    39      1 modes -  To be done

     Representation    40      1 modes -  To be done

     Representation    41      1 modes -  To be done

     Representation    42      1 modes -  To be done

     Representation    43      1 modes -  To be done

     Representation    44      1 modes -  To be done

     Representation    45      1 modes -  To be done

     Representation    46      1 modes -  To be done

     Representation    47      1 modes -  To be done

     Representation    48      1 modes -  To be done

     Representation    49      1 modes -  To be done

     Representation    50      1 modes -  To be done

     Representation    51      1 modes -  To be done

     Representation    52      1 modes -  To be done

     Representation    53      1 modes -  To be done

     Representation    54      1 modes -  To be done

     Representation    55      1 modes -  To be done

     Representation    56      1 modes -  To be done

     Representation    57      1 modes -  To be done

     Representation    58      1 modes -  To be done

     Representation    59      1 modes -  To be done

     Representation    60      1 modes -  To be done

     Representation    61      1 modes -  To be done

     Representation    62      1 modes -  To be done

     Representation    63      1 modes -  To be done

     Representation    64      1 modes -  To be done

     Representation    65      1 modes -  To be done

     Representation    66      1 modes -  To be done


     PHONON       :  14m36.92s CPU  15m 4.96s WALL

     Reading dVscf from file dv
     Reading dynamics matrix from file LaYH20.dyn2

     Diagonalizing the dynamical matrix

     q = (   -0.426471750  -0.246223580   0.221398998 ) 

 **************************************************************************
     freq (    1) =     -85.445174 [THz] =   -2850.144212 [cm-1]
     freq (    2) =     -70.042803 [THz] =   -2336.376425 [cm-1]
     freq (    3) =     -62.492370 [THz] =   -2084.521092 [cm-1]
     freq (    4) =     -57.772833 [THz] =   -1927.094293 [cm-1]
     freq (    5) =     -53.677119 [THz] =   -1790.475961 [cm-1]
     freq (    6) =     -48.224359 [THz] =   -1608.591484 [cm-1]
     freq (    7) =     -43.590392 [THz] =   -1454.018952 [cm-1]
     freq (    8) =     -34.688266 [THz] =   -1157.076020 [cm-1]
     freq (    9) =     -31.703542 [THz] =   -1057.516327 [cm-1]
     freq (   10) =     -28.867080 [THz] =    -962.902150 [cm-1]
     freq (   11) =     -26.208229 [THz] =    -874.212419 [cm-1]
     freq (   12) =     -20.968792 [THz] =    -699.443614 [cm-1]
     freq (   13) =     -14.702068 [THz] =    -490.408213 [cm-1]
     freq (   14) =     -10.270208 [THz] =    -342.577263 [cm-1]
     freq (   15) =      -7.170555 [THz] =    -239.183958 [cm-1]
     freq (   16) =      -4.999839 [THz] =    -166.776674 [cm-1]
     freq (   17) =      -2.183920 [THz] =     -72.847719 [cm-1]
     freq (   18) =       0.929097 [THz] =      30.991351 [cm-1]
     freq (   19) =       3.483443 [THz] =     116.195139 [cm-1]
     freq (   20) =       4.102998 [THz] =     136.861290 [cm-1]
     freq (   21) =       9.011955 [THz] =     300.606456 [cm-1]
     freq (   22) =      12.644401 [THz] =     421.771806 [cm-1]
     freq (   23) =      14.945197 [THz] =     498.518119 [cm-1]
     freq (   24) =      16.378445 [THz] =     546.326131 [cm-1]
     freq (   25) =      19.752060 [THz] =     658.857803 [cm-1]
     freq (   26) =      22.428509 [THz] =     748.134541 [cm-1]
     freq (   27) =      23.261604 [THz] =     775.923577 [cm-1]
     freq (   28) =      24.806319 [THz] =     827.449735 [cm-1]
     freq (   29) =      25.935824 [THz] =     865.125976 [cm-1]
     freq (   30) =      26.486376 [THz] =     883.490390 [cm-1]
     freq (   31) =      26.981689 [THz] =     900.012272 [cm-1]
     freq (   32) =      27.933749 [THz] =     931.769579 [cm-1]
     freq (   33) =      29.786206 [THz] =     993.560890 [cm-1]
     freq (   34) =      31.123229 [THz] =    1038.159167 [cm-1]
     freq (   35) =      31.437604 [THz] =    1048.645608 [cm-1]
     freq (   36) =      32.243013 [THz] =    1075.511150 [cm-1]
     freq (   37) =      32.310216 [THz] =    1077.752807 [cm-1]
     freq (   38) =      32.939251 [THz] =    1098.735148 [cm-1]
     freq (   39) =      34.169432 [THz] =    1139.769560 [cm-1]
     freq (   40) =      34.577017 [THz] =    1153.365126 [cm-1]
     freq (   41) =      34.993010 [THz] =    1167.241164 [cm-1]
     freq (   42) =      36.160006 [THz] =    1206.167964 [cm-1]
     freq (   43) =      38.358840 [THz] =    1279.513190 [cm-1]
     freq (   44) =      38.594923 [THz] =    1287.388074 [cm-1]
     freq (   45) =      40.104619 [THz] =    1337.746089 [cm-1]
     freq (   46) =      41.174864 [THz] =    1373.445630 [cm-1]
     freq (   47) =      41.639764 [THz] =    1388.953011 [cm-1]
     freq (   48) =      42.856860 [THz] =    1429.550957 [cm-1]
     freq (   49) =      43.177759 [THz] =    1440.255028 [cm-1]
     freq (   50) =      44.007671 [THz] =    1467.937887 [cm-1]
     freq (   51) =      45.653980 [THz] =    1522.852839 [cm-1]
     freq (   52) =      46.336786 [THz] =    1545.628801 [cm-1]
     freq (   53) =      47.372332 [THz] =    1580.170892 [cm-1]
     freq (   54) =      48.379766 [THz] =    1613.775278 [cm-1]
     freq (   55) =      49.851466 [THz] =    1662.865903 [cm-1]
     freq (   56) =      49.928349 [THz] =    1665.430453 [cm-1]
     freq (   57) =      52.000754 [THz] =    1734.558458 [cm-1]
     freq (   58) =      54.582987 [THz] =    1820.692461 [cm-1]
     freq (   59) =      54.776675 [THz] =    1827.153194 [cm-1]
     freq (   60) =      56.306467 [THz] =    1878.181555 [cm-1]
     freq (   61) =      56.827282 [THz] =    1895.554101 [cm-1]
     freq (   62) =      57.725618 [THz] =    1925.519365 [cm-1]
     freq (   63) =      66.198080 [THz] =    2208.130281 [cm-1]
     freq (   64) =      70.782676 [THz] =    2361.055935 [cm-1]
     freq (   65) =      85.650064 [THz] =    2856.978627 [cm-1]
     freq (   66) =      97.658872 [THz] =    3257.549320 [cm-1]
 **************************************************************************

     [elph_tetra]   Lowest band which contains FS :         15
     [elph_tetra]  Highest band which contains FS :         20
     [elph_tetra]    # of bands which contains FS :          6
 
     Tetrahedron method
     DOS = 10.685926 states/spin/Ry/Unit Cell at Ef= 16.918340 eV
     double delta at Ef =217.074242
     lambda(    1)=  0.0000   gamma=    0.00 GHz
     lambda(    2)=  0.0000   gamma=    0.00 GHz
     lambda(    3)=  0.0000   gamma=    0.00 GHz
     lambda(    4)=  0.0000   gamma=    0.00 GHz
     lambda(    5)=  0.0000   gamma=    0.00 GHz
     lambda(    6)=  0.0000   gamma=    0.00 GHz
     lambda(    7)=  0.0000   gamma=    0.00 GHz
     lambda(    8)=  0.0000   gamma=    0.00 GHz
     lambda(    9)=  0.0000   gamma=    0.00 GHz
     lambda(   10)=  0.0000   gamma=    0.00 GHz
     lambda(   11)=  0.0000   gamma=    0.00 GHz
     lambda(   12)=  0.0000   gamma=    0.00 GHz
     lambda(   13)=  0.0000   gamma=    0.00 GHz
     lambda(   14)=  0.0000   gamma=    0.00 GHz
     lambda(   15)=  0.0000   gamma=    0.00 GHz
     lambda(   16)=  0.0000   gamma=    0.00 GHz
     lambda(   17)=  0.0000   gamma=    0.00 GHz
     lambda(   18)=  4.1681   gamma=   36.72 GHz
     lambda(   19)=  0.3183   gamma=   39.42 GHz
     lambda(   20)=  0.1819   gamma=   31.25 GHz
     lambda(   21)=  0.0729   gamma=   60.41 GHz
     lambda(   22)=  0.2734   gamma=  446.04 GHz
     lambda(   23)=  0.1883   gamma=  429.27 GHz
     lambda(   24)=  0.1757   gamma=  481.00 GHz
     lambda(   25)=  0.0786   gamma=  313.01 GHz
     lambda(   26)=  0.0629   gamma=  323.12 GHz
     lambda(   27)=  0.0666   gamma=  367.99 GHz
     lambda(   28)=  0.0136   gamma=   85.35 GHz
     lambda(   29)=  0.0361   gamma=  247.86 GHz
     lambda(   30)=  0.0149   gamma=  106.31 GHz
     lambda(   31)=  0.0781   gamma=  580.05 GHz
     lambda(   32)=  0.0513   gamma=  408.42 GHz
     lambda(   33)=  0.0408   gamma=  369.74 GHz
     lambda(   34)=  0.0483   gamma=  477.51 GHz
     lambda(   35)=  0.0460   gamma=  463.59 GHz
     lambda(   36)=  0.0290   gamma=  307.83 GHz
     lambda(   37)=  0.0178   gamma=  189.66 GHz
     lambda(   38)=  0.0499   gamma=  552.97 GHz
     lambda(   39)=  0.0166   gamma=  197.84 GHz
     lambda(   40)=  0.0408   gamma=  497.98 GHz
     lambda(   41)=  0.0110   gamma=  137.53 GHz
     lambda(   42)=  0.0297   gamma=  395.88 GHz
     lambda(   43)=  0.0233   gamma=  350.18 GHz
     lambda(   44)=  0.0424   gamma=  645.04 GHz
     lambda(   45)=  0.0140   gamma=  230.12 GHz
     lambda(   46)=  0.0230   gamma=  397.20 GHz
     lambda(   47)=  0.0351   gamma=  621.82 GHz
     lambda(   48)=  0.0293   gamma=  549.22 GHz
     lambda(   49)=  0.0120   gamma=  229.01 GHz
     lambda(   50)=  0.0263   gamma=  520.21 GHz
     lambda(   51)=  0.0101   gamma=  214.61 GHz
     lambda(   52)=  0.0221   gamma=  483.79 GHz
     lambda(   53)=  0.0101   gamma=  230.87 GHz
     lambda(   54)=  0.0208   gamma=  496.80 GHz
     lambda(   55)=  0.0229   gamma=  579.80 GHz
     lambda(   56)=  0.0073   gamma=  185.47 GHz
     lambda(   57)=  0.0145   gamma=  401.24 GHz
     lambda(   58)=  0.0138   gamma=  418.25 GHz
     lambda(   59)=  0.0073   gamma=  224.20 GHz
     lambda(   60)=  0.0174   gamma=  561.62 GHz
     lambda(   61)=  0.0108   gamma=  357.49 GHz
     lambda(   62)=  0.0065   gamma=  220.49 GHz
     lambda(   63)=  0.0102   gamma=  457.84 GHz
     lambda(   64)=  0.0053   gamma=  273.49 GHz
     lambda(   65)=  0.0035   gamma=  262.39 GHz
     lambda(   66)=  0.0029   gamma=  279.46 GHz
 
     Number of q in the star =    6
     List of q in the star:
          1  -0.426471750  -0.246223580   0.221398998
          2   0.000000000   0.492447160   0.221398998
          3   0.426471750  -0.246223580   0.221398998
          4   0.426471750   0.246223580  -0.221398998
          5  -0.426471750   0.246223580  -0.221398998
          6   0.000000000  -0.492447160  -0.221398998

     Calculation of q =    0.8529435   0.4924472  -0.0442798
     [opt_tetra]  Optimized tetrahedron method is used.
 
     Parallelization info
     --------------------
     sticks:   dense  smooth     PW     G-vecs:    dense   smooth      PW
     Min          87      87     30                 1834     1834     373
     Max          88      88     32                 1835     1835     375
     Sum        1751    1751    605                36689    36689    7481
 
     Using Slab Decomposition
 

     Title: 
      Electron-phonon for LaYH20                                                


     bravais-lattice index     =            5
     lattice parameter (alat)  =      11.0632  a.u.
     unit-cell volume          =     379.1881 (a.u.)^3
     number of atoms/cell      =           22
     number of atomic types    =            3
     number of electrons       =        34.00
     number of Kohn-Sham states=           21
     kinetic-energy cutoff     =      80.0000  Ry
     charge density cutoff     =     320.0000  Ry
     Exchange-correlation= PZ
                           (   1   1   0   0   0   0   0)

     celldm(1)=  11.063193  celldm(2)=   0.000000  celldm(3)=   0.000000
     celldm(4)=   0.828182  celldm(5)=   0.000000  celldm(6)=   0.000000

     crystal axes: (cart. coord. in units of alat)
               a(1) = (   0.293103  -0.169223   0.940986 )  
               a(2) = (   0.000000   0.338446   0.940986 )  
               a(3) = (  -0.293103  -0.169223   0.940986 )  

     reciprocal axes: (cart. coord. in units 2 pi/alat)
               b(1) = (  1.705887 -0.984894  0.354238 )  
               b(2) = (  0.000000  1.969789  0.354238 )  
               b(3) = ( -1.705887 -0.984894  0.354238 )  


     PseudoPot. # 1 for La read from file:
     ./La.UPF
     MD5 check sum: 8e5991bce12d7f16f732aa20d6589152
     Pseudo is Norm-conserving, Zval = 11.0
     Generated in analytical, separable form
     Using radial grid of 1253 points,  7 beta functions with: 
                l(1) =   0
                l(2) =   0
                l(3) =   1
                l(4) =   1
                l(5) =   1
                l(6) =   2
                l(7) =   3

     PseudoPot. # 2 for H  read from file:
     ./H.UPF
     MD5 check sum: df8e43189db5a2d7f03d0dd74d71ce72
     Pseudo is Norm-conserving, Zval =  1.0
     Generated in analytical, separable form
     Using radial grid of  929 points,  0 beta functions with: 

     PseudoPot. # 3 for Y  read from file:
     ./Y.UPF
     MD5 check sum: 28b92b02874aa0fef5f1b1d2b706803c
     Pseudo is Norm-conserving, Zval =  3.0
     Generated in analytical, separable form
     Using radial grid of 1223 points,  7 beta functions with: 
                l(1) =   0
                l(2) =   0
                l(3) =   0
                l(4) =   1
                l(5) =   1
                l(6) =   2
                l(7) =   2

     atomic species   valence    mass     pseudopotential
        La            11.00   138.90547     La( 1.00)
        H              1.00     1.00794     H ( 1.00)
        Y              3.00    88.90585     Y ( 1.00)

     12 Sym. Ops., with inversion, found



   Cartesian axes

     site n.     atom                  positions (alat units)
         1           La  tau(   1) = (   0.0000000  -0.0000000   1.4114788  )
         2           Y   tau(   2) = (   0.0000000   0.0000000   0.0000000  )
         3           H   tau(   3) = (  -0.1429213   0.0825157   2.1619650  )
         4           H   tau(   4) = (   0.0000000  -0.1650314   2.1619650  )
         5           H   tau(   5) = (   0.1429213   0.0825157   2.1619650  )
         6           H   tau(   6) = (  -0.1429213  -0.0825157   0.6609927  )
         7           H   tau(   7) = (   0.0000000   0.1650314   0.6609927  )
         8           H   tau(   8) = (   0.1429213  -0.0825157   0.6609927  )
         9           H   tau(   9) = (   0.1519649  -0.0877370   1.7196022  )
        10           H   tau(  10) = (   0.0000000   0.1754740   1.7196022  )
        11           H   tau(  11) = (  -0.1519649  -0.0877370   1.7196022  )
        12           H   tau(  12) = (   0.1519649   0.0877370   1.1033554  )
        13           H   tau(  13) = (   0.0000000  -0.1754740   1.1033554  )
        14           H   tau(  14) = (  -0.1519649   0.0877370   1.1033554  )
        15           H   tau(  15) = (   0.0000000  -0.0000000   2.2801626  )
        16           H   tau(  16) = (   0.0000000  -0.0000000   0.5427951  )
        17           H   tau(  17) = (   0.0000000  -0.0000000   1.9453439  )
        18           H   tau(  18) = (   0.0000000  -0.0000000   0.8776138  )
        19           H   tau(  19) = (   0.0000000  -0.0000000   2.4757085  )
        20           H   tau(  20) = (   0.0000000  -0.0000000   0.3472491  )
        21           H   tau(  21) = (   0.0000000  -0.0000000   1.0612670  )
        22           H   tau(  22) = (   0.0000000  -0.0000000   1.7616907  )

     number of k points=  1872 (tetrahedron method)

     Number of k-points >= 100: set verbosity='high' to print them.

     Dense  grid:    36689 G-vectors     FFT dimensions: (  64,  64,  64)

     Estimated max dynamical RAM per process >      10.86 MB

     Estimated total dynamical RAM >     217.26 MB

     The potential is recalculated from file :
     ./_ph0/LaYH20.q_3/LaYH20.save/charge-density

     Starting wfcs are   20 atomic +    1 random wfcs

     Band Structure Calculation
     Davidson diagonalization with overlap
     c_bands:  1 eigenvalues not converged
     c_bands:  1 eigenvalues not converged
     c_bands:  1 eigenvalues not converged
     c_bands:  1 eigenvalues not converged
     c_bands:  1 eigenvalues not converged
     c_bands:  1 eigenvalues not converged
     c_bands:  1 eigenvalues not converged
     c_bands:  1 eigenvalues not converged
     c_bands:  1 eigenvalues not converged
     c_bands:  1 eigenvalues not converged
     c_bands:  1 eigenvalues not converged
     c_bands:  1 eigenvalues not converged
     c_bands:  1 eigenvalues not converged
     c_bands:  1 eigenvalues not converged
     c_bands:  1 eigenvalues not converged
     c_bands:  1 eigenvalues not converged
     c_bands:  1 eigenvalues not converged
     c_bands:  1 eigenvalues not converged
     c_bands:  1 eigenvalues not converged
     c_bands:  1 eigenvalues not converged
     c_bands:  1 eigenvalues not converged
     c_bands:  1 eigenvalues not converged
     c_bands:  1 eigenvalues not converged
     c_bands:  1 eigenvalues not converged

     ethr =  2.94E-11,  avg # of iterations = 50.8

     total cpu time spent up to now is     1188.4 secs

     End of band structure calculation

     Number of k-points >= 100: set verbosity='high' to print the bands.

     the Fermi energy is    16.9183 ev

     Writing config to output data dir ./_ph0/LaYH20.q_3/LaYH20.save/
 
     [dfpt_tetra]  Dos(E_F)[/Ry] :   0.2137185E+02

      Electron-phonon for LaYH20                                                

     bravais-lattice index     =            5
     lattice parameter (alat)  =      11.0632  a.u.
     unit-cell volume          =     379.1881 (a.u.)^3
     number of atoms/cell      =           22
     number of atomic types    =            3
     kinetic-energy cut-off    =      80.0000  Ry
     charge density cut-off    =     320.0000  Ry
     convergence threshold     =      1.0E-08
     beta                      =       0.7000
     number of iterations used =            4
     Exchange-correlation= PZ
                           (   1   1   0   0   0   0   0)


     celldm(1)=   11.06319  celldm(2)=    0.00000  celldm(3)=    0.00000
     celldm(4)=    0.82818  celldm(5)=    0.00000  celldm(6)=    0.00000

     crystal axes: (cart. coord. in units of alat)
               a(1) = (  0.2931 -0.1692  0.9410 )  
               a(2) = (  0.0000  0.3384  0.9410 )  
               a(3) = ( -0.2931 -0.1692  0.9410 )  

     reciprocal axes: (cart. coord. in units 2 pi/alat)
               b(1) = (  1.7059 -0.9849  0.3542 )  
               b(2) = (  0.0000  1.9698  0.3542 )  
               b(3) = ( -1.7059 -0.9849  0.3542 )  


     Atoms inside the unit cell: 

     Cartesian axes

     site n.  atom      mass           positions (alat units)
        1     La 138.9055   tau(    1) = (    0.00000   -0.00000    1.41148  )
        2     Y   88.9059   tau(    2) = (    0.00000    0.00000    0.00000  )
        3     H    1.0079   tau(    3) = (   -0.14292    0.08252    2.16197  )
        4     H    1.0079   tau(    4) = (    0.00000   -0.16503    2.16197  )
        5     H    1.0079   tau(    5) = (    0.14292    0.08252    2.16197  )
        6     H    1.0079   tau(    6) = (   -0.14292   -0.08252    0.66099  )
        7     H    1.0079   tau(    7) = (    0.00000    0.16503    0.66099  )
        8     H    1.0079   tau(    8) = (    0.14292   -0.08252    0.66099  )
        9     H    1.0079   tau(    9) = (    0.15196   -0.08774    1.71960  )
       10     H    1.0079   tau(   10) = (    0.00000    0.17547    1.71960  )
       11     H    1.0079   tau(   11) = (   -0.15196   -0.08774    1.71960  )
       12     H    1.0079   tau(   12) = (    0.15196    0.08774    1.10336  )
       13     H    1.0079   tau(   13) = (    0.00000   -0.17547    1.10336  )
       14     H    1.0079   tau(   14) = (   -0.15196    0.08774    1.10336  )
       15     H    1.0079   tau(   15) = (    0.00000   -0.00000    2.28016  )
       16     H    1.0079   tau(   16) = (    0.00000   -0.00000    0.54280  )
       17     H    1.0079   tau(   17) = (    0.00000   -0.00000    1.94534  )
       18     H    1.0079   tau(   18) = (    0.00000   -0.00000    0.87761  )
       19     H    1.0079   tau(   19) = (    0.00000   -0.00000    2.47571  )
       20     H    1.0079   tau(   20) = (    0.00000   -0.00000    0.34725  )
       21     H    1.0079   tau(   21) = (    0.00000   -0.00000    1.06127  )
       22     H    1.0079   tau(   22) = (    0.00000   -0.00000    1.76169  )

     Computing dynamical matrix for 
                    q = (   0.8529435   0.4924472  -0.0442798 )
 
      2 Sym.Ops. (no q -> -q+G )


     G cutoff =  992.0904  (   1835 G-vectors)     FFT grid: ( 64, 64, 64)
     number of k points=  1872

     PseudoPot. # 1 for La read from file:
     ./La.UPF
     MD5 check sum: 8e5991bce12d7f16f732aa20d6589152
     Pseudo is Norm-conserving, Zval = 11.0
     Generated in analytical, separable form
     Using radial grid of 1253 points,  7 beta functions with: 
                l(1) =   0
                l(2) =   0
                l(3) =   1
                l(4) =   1
                l(5) =   1
                l(6) =   2
                l(7) =   3

     PseudoPot. # 2 for H  read from file:
     ./H.UPF
     MD5 check sum: df8e43189db5a2d7f03d0dd74d71ce72
     Pseudo is Norm-conserving, Zval =  1.0
     Generated in analytical, separable form
     Using radial grid of  929 points,  0 beta functions with: 

     PseudoPot. # 3 for Y  read from file:
     ./Y.UPF
     MD5 check sum: 28b92b02874aa0fef5f1b1d2b706803c
     Pseudo is Norm-conserving, Zval =  3.0
     Generated in analytical, separable form
     Using radial grid of 1223 points,  7 beta functions with: 
                l(1) =   0
                l(2) =   0
                l(3) =   0
                l(4) =   1
                l(5) =   1
                l(6) =   2
                l(7) =   2

     Mode symmetry, C_s (m)     point group:


     Atomic displacements:
     There are   66 irreducible representations

     Representation     1      1 modes -  To be done

     Representation     2      1 modes -  To be done

     Representation     3      1 modes -  To be done

     Representation     4      1 modes -  To be done

     Representation     5      1 modes -  To be done

     Representation     6      1 modes -  To be done

     Representation     7      1 modes -  To be done

     Representation     8      1 modes -  To be done

     Representation     9      1 modes -  To be done

     Representation    10      1 modes -  To be done

     Representation    11      1 modes -  To be done

     Representation    12      1 modes -  To be done

     Representation    13      1 modes -  To be done

     Representation    14      1 modes -  To be done

     Representation    15      1 modes -  To be done

     Representation    16      1 modes -  To be done

     Representation    17      1 modes -  To be done

     Representation    18      1 modes -  To be done

     Representation    19      1 modes -  To be done

     Representation    20      1 modes -  To be done

     Representation    21      1 modes -  To be done

     Representation    22      1 modes -  To be done

     Representation    23      1 modes -  To be done

     Representation    24      1 modes -  To be done

     Representation    25      1 modes -  To be done

     Representation    26      1 modes -  To be done

     Representation    27      1 modes -  To be done

     Representation    28      1 modes -  To be done

     Representation    29      1 modes -  To be done

     Representation    30      1 modes -  To be done

     Representation    31      1 modes -  To be done

     Representation    32      1 modes -  To be done

     Representation    33      1 modes -  To be done

     Representation    34      1 modes -  To be done

     Representation    35      1 modes -  To be done

     Representation    36      1 modes -  To be done

     Representation    37      1 modes -  To be done

     Representation    38      1 modes -  To be done

     Representation    39      1 modes -  To be done

     Representation    40      1 modes -  To be done

     Representation    41      1 modes -  To be done

     Representation    42      1 modes -  To be done

     Representation    43      1 modes -  To be done

     Representation    44      1 modes -  To be done

     Representation    45      1 modes -  To be done

     Representation    46      1 modes -  To be done

     Representation    47      1 modes -  To be done

     Representation    48      1 modes -  To be done

     Representation    49      1 modes -  To be done

     Representation    50      1 modes -  To be done

     Representation    51      1 modes -  To be done

     Representation    52      1 modes -  To be done

     Representation    53      1 modes -  To be done

     Representation    54      1 modes -  To be done

     Representation    55      1 modes -  To be done

     Representation    56      1 modes -  To be done

     Representation    57      1 modes -  To be done

     Representation    58      1 modes -  To be done

     Representation    59      1 modes -  To be done

     Representation    60      1 modes -  To be done

     Representation    61      1 modes -  To be done

     Representation    62      1 modes -  To be done

     Representation    63      1 modes -  To be done

     Representation    64      1 modes -  To be done

     Representation    65      1 modes -  To be done

     Representation    66      1 modes -  To be done


     PHONON       :  31m54.51s CPU  32m54.42s WALL

     Reading dVscf from file dv
     Reading dynamics matrix from file LaYH20.dyn3

     Diagonalizing the dynamical matrix

     q = (    0.852943501   0.492447160  -0.044279800 ) 

 **************************************************************************
     freq (    1) =     -60.184259 [THz] =   -2007.530773 [cm-1]
     freq (    2) =     -59.569034 [THz] =   -1987.009079 [cm-1]
     freq (    3) =     -54.342760 [THz] =   -1812.679344 [cm-1]
     freq (    4) =     -51.193081 [THz] =   -1707.617376 [cm-1]
     freq (    5) =     -50.616190 [THz] =   -1688.374350 [cm-1]
     freq (    6) =     -49.313290 [THz] =   -1644.914289 [cm-1]
     freq (    7) =     -38.808170 [THz] =   -1294.501216 [cm-1]
     freq (    8) =     -35.485726 [THz] =   -1183.676418 [cm-1]
     freq (    9) =     -32.312672 [THz] =   -1077.834719 [cm-1]
     freq (   10) =     -30.581634 [THz] =   -1020.093521 [cm-1]
     freq (   11) =     -26.946473 [THz] =    -898.837594 [cm-1]
     freq (   12) =     -20.145053 [THz] =    -671.966644 [cm-1]
     freq (   13) =      -9.023342 [THz] =    -300.986293 [cm-1]
     freq (   14) =      -6.652958 [THz] =    -221.918800 [cm-1]
     freq (   15) =      -2.655606 [THz] =     -88.581475 [cm-1]
     freq (   16) =      -2.510708 [THz] =     -83.748191 [cm-1]
     freq (   17) =       4.000672 [THz] =     133.448062 [cm-1]
     freq (   18) =       5.313246 [THz] =     177.230804 [cm-1]
     freq (   19) =       6.328695 [THz] =     211.102528 [cm-1]
     freq (   20) =       9.196214 [THz] =     306.752668 [cm-1]
     freq (   21) =      10.360971 [THz] =     345.604796 [cm-1]
     freq (   22) =      14.978257 [THz] =     499.620880 [cm-1]
     freq (   23) =      17.420919 [THz] =     581.099305 [cm-1]
     freq (   24) =      17.853531 [THz] =     595.529693 [cm-1]
     freq (   25) =      21.635792 [THz] =     721.692325 [cm-1]
     freq (   26) =      22.717864 [THz] =     757.786361 [cm-1]
     freq (   27) =      23.005526 [THz] =     767.381738 [cm-1]
     freq (   28) =      25.110075 [THz] =     837.581954 [cm-1]
     freq (   29) =      25.836133 [THz] =     861.800617 [cm-1]
     freq (   30) =      25.987131 [THz] =     866.837391 [cm-1]
     freq (   31) =      27.001699 [THz] =     900.679722 [cm-1]
     freq (   32) =      29.146471 [THz] =     972.221627 [cm-1]
     freq (   33) =      30.278284 [THz] =    1009.974851 [cm-1]
     freq (   34) =      32.226046 [THz] =    1074.945186 [cm-1]
     freq (   35) =      33.105906 [THz] =    1104.294174 [cm-1]
     freq (   36) =      33.316254 [THz] =    1111.310603 [cm-1]
     freq (   37) =      33.810942 [THz] =    1127.811642 [cm-1]
     freq (   38) =      35.302831 [THz] =    1177.575678 [cm-1]
     freq (   39) =      35.860300 [THz] =    1196.170838 [cm-1]
     freq (   40) =      36.875644 [THz] =    1230.039092 [cm-1]
     freq (   41) =      38.878864 [THz] =    1296.859305 [cm-1]
     freq (   42) =      39.512041 [THz] =    1317.979812 [cm-1]
     freq (   43) =      40.306594 [THz] =    1344.483272 [cm-1]
     freq (   44) =      40.539862 [THz] =    1352.264248 [cm-1]
     freq (   45) =      40.657113 [THz] =    1356.175301 [cm-1]
     freq (   46) =      41.104708 [THz] =    1371.105478 [cm-1]
     freq (   47) =      42.786095 [THz] =    1427.190502 [cm-1]
     freq (   48) =      42.986945 [THz] =    1433.890158 [cm-1]
     freq (   49) =      44.331351 [THz] =    1478.734703 [cm-1]
     freq (   50) =      45.751816 [THz] =    1526.116326 [cm-1]
     freq (   51) =      47.132384 [THz] =    1572.167113 [cm-1]
     freq (   52) =      48.891902 [THz] =    1630.858316 [cm-1]
     freq (   53) =      49.335009 [THz] =    1645.638748 [cm-1]
     freq (   54) =      50.922979 [THz] =    1698.607751 [cm-1]
     freq (   55) =      52.160386 [THz] =    1739.883196 [cm-1]
     freq (   56) =      53.530063 [THz] =    1785.570691 [cm-1]
     freq (   57) =      53.796933 [THz] =    1794.472523 [cm-1]
     freq (   58) =      55.874674 [THz] =    1863.778522 [cm-1]
     freq (   59) =      58.282031 [THz] =    1944.079299 [cm-1]
     freq (   60) =      60.030358 [THz] =    2002.397220 [cm-1]
     freq (   61) =      63.350457 [THz] =    2113.143799 [cm-1]
     freq (   62) =      66.394277 [THz] =    2214.674697 [cm-1]
     freq (   63) =      68.403756 [THz] =    2281.703691 [cm-1]
     freq (   64) =      80.329819 [THz] =    2679.514353 [cm-1]
     freq (   65) =      93.176251 [THz] =    3108.025182 [cm-1]
     freq (   66) =     112.703682 [THz] =    3759.390174 [cm-1]
 **************************************************************************

     [elph_tetra]   Lowest band which contains FS :         15
     [elph_tetra]  Highest band which contains FS :         20
     [elph_tetra]    # of bands which contains FS :          6
 
     Tetrahedron method
     DOS = 10.685926 states/spin/Ry/Unit Cell at Ef= 16.918340 eV
     double delta at Ef =222.875156
     lambda(    1)=  0.0000   gamma=    0.00 GHz
     lambda(    2)=  0.0000   gamma=    0.00 GHz
     lambda(    3)=  0.0000   gamma=    0.00 GHz
     lambda(    4)=  0.0000   gamma=    0.00 GHz
     lambda(    5)=  0.0000   gamma=    0.00 GHz
     lambda(    6)=  0.0000   gamma=    0.00 GHz
     lambda(    7)=  0.0000   gamma=    0.00 GHz
     lambda(    8)=  0.0000   gamma=    0.00 GHz
     lambda(    9)=  0.0000   gamma=    0.00 GHz
     lambda(   10)=  0.0000   gamma=    0.00 GHz
     lambda(   11)=  0.0000   gamma=    0.00 GHz
     lambda(   12)=  0.0000   gamma=    0.00 GHz
     lambda(   13)=  0.0000   gamma=    0.00 GHz
     lambda(   14)=  0.0000   gamma=    0.00 GHz
     lambda(   15)=  0.0000   gamma=    0.00 GHz
     lambda(   16)=  0.0000   gamma=    0.00 GHz
     lambda(   17)=  0.0819   gamma=   13.38 GHz
     lambda(   18)=  0.2637   gamma=   75.96 GHz
     lambda(   19)=  0.6682   gamma=  273.09 GHz
     lambda(   20)=  0.6719   gamma=  579.85 GHz
     lambda(   21)=  0.3744   gamma=  410.14 GHz
     lambda(   22)=  0.1417   gamma=  324.43 GHz
     lambda(   23)=  0.2019   gamma=  625.11 GHz
     lambda(   24)=  0.1620   gamma=  527.03 GHz
     lambda(   25)=  0.1212   gamma=  578.98 GHz
     lambda(   26)=  0.0121   gamma=   63.97 GHz
     lambda(   27)=  0.0816   gamma=  440.66 GHz
     lambda(   28)=  0.0565   gamma=  363.55 GHz
     lambda(   29)=  0.0455   gamma=  310.18 GHz
     lambda(   30)=  0.0111   gamma=   76.78 GHz
     lambda(   31)=  0.0370   gamma=  275.37 GHz
     lambda(   32)=  0.0348   gamma=  301.31 GHz
     lambda(   33)=  0.0643   gamma=  601.78 GHz
     lambda(   34)=  0.0337   gamma=  357.58 GHz
     lambda(   35)=  0.0127   gamma=  141.53 GHz
     lambda(   36)=  0.0181   gamma=  204.93 GHz
     lambda(   37)=  0.0268   gamma=  312.51 GHz
     lambda(   38)=  0.0144   gamma=  183.18 GHz
     lambda(   39)=  0.0205   gamma=  268.59 GHz
     lambda(   40)=  0.0195   gamma=  271.00 GHz
     lambda(   41)=  0.0372   gamma=  573.17 GHz
     lambda(   42)=  0.0317   gamma=  505.70 GHz
     lambda(   43)=  0.0157   gamma=  260.85 GHz
     lambda(   44)=  0.0410   gamma=  687.44 GHz
     lambda(   45)=  0.0324   gamma=  546.14 GHz
     lambda(   46)=  0.0129   gamma=  221.73 GHz
     lambda(   47)=  0.0209   gamma=  389.65 GHz
     lambda(   48)=  0.0136   gamma=  255.79 GHz
     lambda(   49)=  0.0240   gamma=  481.01 GHz
     lambda(   50)=  0.0178   gamma=  379.52 GHz
     lambda(   51)=  0.0180   gamma=  408.69 GHz
     lambda(   52)=  0.0079   gamma=  192.77 GHz
     lambda(   53)=  0.0196   gamma=  487.08 GHz
     lambda(   54)=  0.0198   gamma=  524.54 GHz
     lambda(   55)=  0.0115   gamma=  317.92 GHz
     lambda(   56)=  0.0139   gamma=  406.12 GHz
     lambda(   57)=  0.0067   gamma=  198.78 GHz
     lambda(   58)=  0.0163   gamma=  518.31 GHz
     lambda(   59)=  0.0104   gamma=  360.81 GHz
     lambda(   60)=  0.0126   gamma=  463.83 GHz
     lambda(   61)=  0.0074   gamma=  302.05 GHz
     lambda(   62)=  0.0083   gamma=  372.13 GHz
     lambda(   63)=  0.0055   gamma=  264.55 GHz
     lambda(   64)=  0.0050   gamma=  332.14 GHz
     lambda(   65)=  0.0025   gamma=  223.27 GHz
     lambda(   66)=  0.0021   gamma=  273.68 GHz
 
     Number of q in the star =    6
     List of q in the star:
          1   0.852943501   0.492447160  -0.044279800
          2   0.000000000  -0.984894319  -0.044279800
          3  -0.852943501   0.492447160  -0.044279800
          4  -0.852943501  -0.492447160   0.044279800
          5   0.852943501  -0.492447160   0.044279800
          6  -0.000000000   0.984894319   0.044279800

     Calculation of q =    0.4264718   0.2462236   0.0442798
     [opt_tetra]  Optimized tetrahedron method is used.
 
     Parallelization info
     --------------------
     sticks:   dense  smooth     PW     G-vecs:    dense   smooth      PW
     Min          87      87     28                 1834     1834     344
     Max          88      88     29                 1835     1835     346
     Sum        1751    1751    573                36689    36689    6903
 
     Using Slab Decomposition
 

     Title: 
      Electron-phonon for LaYH20                                                


     bravais-lattice index     =            5
     lattice parameter (alat)  =      11.0632  a.u.
     unit-cell volume          =     379.1881 (a.u.)^3
     number of atoms/cell      =           22
     number of atomic types    =            3
     number of electrons       =        34.00
     number of Kohn-Sham states=           21
     kinetic-energy cutoff     =      80.0000  Ry
     charge density cutoff     =     320.0000  Ry
     Exchange-correlation= PZ
                           (   1   1   0   0   0   0   0)

     celldm(1)=  11.063193  celldm(2)=   0.000000  celldm(3)=   0.000000
     celldm(4)=   0.828182  celldm(5)=   0.000000  celldm(6)=   0.000000

     crystal axes: (cart. coord. in units of alat)
               a(1) = (   0.293103  -0.169223   0.940986 )  
               a(2) = (   0.000000   0.338446   0.940986 )  
               a(3) = (  -0.293103  -0.169223   0.940986 )  

     reciprocal axes: (cart. coord. in units 2 pi/alat)
               b(1) = (  1.705887 -0.984894  0.354238 )  
               b(2) = (  0.000000  1.969789  0.354238 )  
               b(3) = ( -1.705887 -0.984894  0.354238 )  


     PseudoPot. # 1 for La read from file:
     ./La.UPF
     MD5 check sum: 8e5991bce12d7f16f732aa20d6589152
     Pseudo is Norm-conserving, Zval = 11.0
     Generated in analytical, separable form
     Using radial grid of 1253 points,  7 beta functions with: 
                l(1) =   0
                l(2) =   0
                l(3) =   1
                l(4) =   1
                l(5) =   1
                l(6) =   2
                l(7) =   3

     PseudoPot. # 2 for H  read from file:
     ./H.UPF
     MD5 check sum: df8e43189db5a2d7f03d0dd74d71ce72
     Pseudo is Norm-conserving, Zval =  1.0
     Generated in analytical, separable form
     Using radial grid of  929 points,  0 beta functions with: 

     PseudoPot. # 3 for Y  read from file:
     ./Y.UPF
     MD5 check sum: 28b92b02874aa0fef5f1b1d2b706803c
     Pseudo is Norm-conserving, Zval =  3.0
     Generated in analytical, separable form
     Using radial grid of 1223 points,  7 beta functions with: 
                l(1) =   0
                l(2) =   0
                l(3) =   0
                l(4) =   1
                l(5) =   1
                l(6) =   2
                l(7) =   2

     atomic species   valence    mass     pseudopotential
        La            11.00   138.90547     La( 1.00)
        H              1.00     1.00794     H ( 1.00)
        Y              3.00    88.90585     Y ( 1.00)

     12 Sym. Ops., with inversion, found



   Cartesian axes

     site n.     atom                  positions (alat units)
         1           La  tau(   1) = (   0.0000000  -0.0000000   1.4114788  )
         2           Y   tau(   2) = (   0.0000000   0.0000000   0.0000000  )
         3           H   tau(   3) = (  -0.1429213   0.0825157   2.1619650  )
         4           H   tau(   4) = (   0.0000000  -0.1650314   2.1619650  )
         5           H   tau(   5) = (   0.1429213   0.0825157   2.1619650  )
         6           H   tau(   6) = (  -0.1429213  -0.0825157   0.6609927  )
         7           H   tau(   7) = (   0.0000000   0.1650314   0.6609927  )
         8           H   tau(   8) = (   0.1429213  -0.0825157   0.6609927  )
         9           H   tau(   9) = (   0.1519649  -0.0877370   1.7196022  )
        10           H   tau(  10) = (   0.0000000   0.1754740   1.7196022  )
        11           H   tau(  11) = (  -0.1519649  -0.0877370   1.7196022  )
        12           H   tau(  12) = (   0.1519649   0.0877370   1.1033554  )
        13           H   tau(  13) = (   0.0000000  -0.1754740   1.1033554  )
        14           H   tau(  14) = (  -0.1519649   0.0877370   1.1033554  )
        15           H   tau(  15) = (   0.0000000  -0.0000000   2.2801626  )
        16           H   tau(  16) = (   0.0000000  -0.0000000   0.5427951  )
        17           H   tau(  17) = (   0.0000000  -0.0000000   1.9453439  )
        18           H   tau(  18) = (   0.0000000  -0.0000000   0.8776138  )
        19           H   tau(  19) = (   0.0000000  -0.0000000   2.4757085  )
        20           H   tau(  20) = (   0.0000000  -0.0000000   0.3472491  )
        21           H   tau(  21) = (   0.0000000  -0.0000000   1.0612670  )
        22           H   tau(  22) = (   0.0000000  -0.0000000   1.7616907  )

     number of k points=  1872 (tetrahedron method)

     Number of k-points >= 100: set verbosity='high' to print them.

     Dense  grid:    36689 G-vectors     FFT dimensions: (  64,  64,  64)

     Estimated max dynamical RAM per process >      10.74 MB

     Estimated total dynamical RAM >     214.77 MB

     The potential is recalculated from file :
     ./_ph0/LaYH20.q_4/LaYH20.save/charge-density

     Starting wfcs are   20 atomic +    1 random wfcs

     Band Structure Calculation
     Davidson diagonalization with overlap
     c_bands:  1 eigenvalues not converged
     c_bands:  1 eigenvalues not converged
     c_bands:  1 eigenvalues not converged
     c_bands:  1 eigenvalues not converged
     c_bands:  1 eigenvalues not converged
     c_bands:  1 eigenvalues not converged
     c_bands:  1 eigenvalues not converged
     c_bands:  1 eigenvalues not converged
     c_bands:  1 eigenvalues not converged
     c_bands:  1 eigenvalues not converged
     c_bands:  1 eigenvalues not converged
     c_bands:  1 eigenvalues not converged
     c_bands:  1 eigenvalues not converged
     c_bands:  1 eigenvalues not converged
     c_bands:  1 eigenvalues not converged
     c_bands:  1 eigenvalues not converged
     c_bands:  1 eigenvalues not converged
     c_bands:  1 eigenvalues not converged
     c_bands:  1 eigenvalues not converged
     c_bands:  1 eigenvalues not converged
     c_bands:  1 eigenvalues not converged
     c_bands:  1 eigenvalues not converged
     c_bands:  1 eigenvalues not converged
     c_bands:  1 eigenvalues not converged
     c_bands:  1 eigenvalues not converged
     c_bands:  1 eigenvalues not converged
     c_bands:  1 eigenvalues not converged
     c_bands:  1 eigenvalues not converged
     c_bands:  1 eigenvalues not converged
     c_bands:  1 eigenvalues not converged
     c_bands:  1 eigenvalues not converged
     c_bands:  1 eigenvalues not converged

     ethr =  2.94E-11,  avg # of iterations = 50.8

     total cpu time spent up to now is     1679.4 secs

     End of band structure calculation

     Number of k-points >= 100: set verbosity='high' to print the bands.

     the Fermi energy is    16.9183 ev

     Writing config to output data dir ./_ph0/LaYH20.q_4/LaYH20.save/
 
     [dfpt_tetra]  Dos(E_F)[/Ry] :   0.2137185E+02

      Electron-phonon for LaYH20                                                

     bravais-lattice index     =            5
     lattice parameter (alat)  =      11.0632  a.u.
     unit-cell volume          =     379.1881 (a.u.)^3
     number of atoms/cell      =           22
     number of atomic types    =            3
     kinetic-energy cut-off    =      80.0000  Ry
     charge density cut-off    =     320.0000  Ry
     convergence threshold     =      1.0E-08
     beta                      =       0.7000
     number of iterations used =            4
     Exchange-correlation= PZ
                           (   1   1   0   0   0   0   0)


     celldm(1)=   11.06319  celldm(2)=    0.00000  celldm(3)=    0.00000
     celldm(4)=    0.82818  celldm(5)=    0.00000  celldm(6)=    0.00000

     crystal axes: (cart. coord. in units of alat)
               a(1) = (  0.2931 -0.1692  0.9410 )  
               a(2) = (  0.0000  0.3384  0.9410 )  
               a(3) = ( -0.2931 -0.1692  0.9410 )  

[...]
     kinetic-energy cut-off    =      80.0000  Ry
     charge density cut-off    =     320.0000  Ry
     convergence threshold     =      1.0E-08
     beta                      =       0.7000
     number of iterations used =            4
     Exchange-correlation= PZ
                           (   1   1   0   0   0   0   0)


     celldm(1)=   11.06319  celldm(2)=    0.00000  celldm(3)=    0.00000
     celldm(4)=    0.82818  celldm(5)=    0.00000  celldm(6)=    0.00000

     crystal axes: (cart. coord. in units of alat)
               a(1) = (  0.2931 -0.1692  0.9410 )  
               a(2) = (  0.0000  0.3384  0.9410 )  
               a(3) = ( -0.2931 -0.1692  0.9410 )  

     reciprocal axes: (cart. coord. in units 2 pi/alat)
               b(1) = (  1.7059 -0.9849  0.3542 )  
               b(2) = (  0.0000  1.9698  0.3542 )  
               b(3) = ( -1.7059 -0.9849  0.3542 )  


     Atoms inside the unit cell: 

     Cartesian axes

     site n.  atom      mass           positions (alat units)
        1     La 138.9055   tau(    1) = (    0.00000   -0.00000    1.41148  )
        2     Y   88.9059   tau(    2) = (    0.00000    0.00000    0.00000  )
        3     H    1.0079   tau(    3) = (   -0.14292    0.08252    2.16197  )
        4     H    1.0079   tau(    4) = (    0.00000   -0.16503    2.16197  )
        5     H    1.0079   tau(    5) = (    0.14292    0.08252    2.16197  )
        6     H    1.0079   tau(    6) = (   -0.14292   -0.08252    0.66099  )
        7     H    1.0079   tau(    7) = (    0.00000    0.16503    0.66099  )
        8     H    1.0079   tau(    8) = (    0.14292   -0.08252    0.66099  )
        9     H    1.0079   tau(    9) = (    0.15196   -0.08774    1.71960  )
       10     H    1.0079   tau(   10) = (    0.00000    0.17547    1.71960  )
       11     H    1.0079   tau(   11) = (   -0.15196   -0.08774    1.71960  )
       12     H    1.0079   tau(   12) = (    0.15196    0.08774    1.10336  )
       13     H    1.0079   tau(   13) = (    0.00000   -0.17547    1.10336  )
       14     H    1.0079   tau(   14) = (   -0.15196    0.08774    1.10336  )
       15     H    1.0079   tau(   15) = (    0.00000   -0.00000    2.28016  )
       16     H    1.0079   tau(   16) = (    0.00000   -0.00000    0.54280  )
       17     H    1.0079   tau(   17) = (    0.00000   -0.00000    1.94534  )
       18     H    1.0079   tau(   18) = (    0.00000   -0.00000    0.87761  )
       19     H    1.0079   tau(   19) = (    0.00000   -0.00000    2.47571  )
       20     H    1.0079   tau(   20) = (    0.00000   -0.00000    0.34725  )
       21     H    1.0079   tau(   21) = (    0.00000   -0.00000    1.06127  )
       22     H    1.0079   tau(   22) = (    0.00000   -0.00000    1.76169  )

     Computing dynamical matrix for 
                    q = (   1.2794153   0.7386707   0.1328394 )
 
      2 Sym.Ops. (no q -> -q+G )


     G cutoff =  992.0904  (   1835 G-vectors)     FFT grid: ( 64, 64, 64)
     number of k points=  1872

     PseudoPot. # 1 for La read from file:
     ./La.UPF
     MD5 check sum: 8e5991bce12d7f16f732aa20d6589152
     Pseudo is Norm-conserving, Zval = 11.0
     Generated in analytical, separable form
     Using radial grid of 1253 points,  7 beta functions with: 
                l(1) =   0
                l(2) =   0
                l(3) =   1
                l(4) =   1
                l(5) =   1
                l(6) =   2
                l(7) =   3

     PseudoPot. # 2 for H  read from file:
     ./H.UPF
     MD5 check sum: df8e43189db5a2d7f03d0dd74d71ce72
     Pseudo is Norm-conserving, Zval =  1.0
     Generated in analytical, separable form
     Using radial grid of  929 points,  0 beta functions with: 

     PseudoPot. # 3 for Y  read from file:
     ./Y.UPF
     MD5 check sum: 28b92b02874aa0fef5f1b1d2b706803c
     Pseudo is Norm-conserving, Zval =  3.0
     Generated in analytical, separable form
     Using radial grid of 1223 points,  7 beta functions with: 
                l(1) =   0
                l(2) =   0
                l(3) =   0
                l(4) =   1
                l(5) =   1
                l(6) =   2
                l(7) =   2

     Mode symmetry, C_s (m)     point group:


     Atomic displacements:
     There are   66 irreducible representations

     Representation     1      1 modes -  To be done

     Representation     2      1 modes -  To be done

     Representation     3      1 modes -  To be done

     Representation     4      1 modes -  To be done

     Representation     5      1 modes -  To be done

     Representation     6      1 modes -  To be done

     Representation     7      1 modes -  To be done

     Representation     8      1 modes -  To be done

     Representation     9      1 modes -  To be done

     Representation    10      1 modes -  To be done

     Representation    11      1 modes -  To be done

     Representation    12      1 modes -  To be done

     Representation    13      1 modes -  To be done

     Representation    14      1 modes -  To be done

     Representation    15      1 modes -  To be done

     Representation    16      1 modes -  To be done

     Representation    17      1 modes -  To be done

     Representation    18      1 modes -  To be done

     Representation    19      1 modes -  To be done

     Representation    20      1 modes -  To be done

     Representation    21      1 modes -  To be done

     Representation    22      1 modes -  To be done

     Representation    23      1 modes -  To be done

     Representation    24      1 modes -  To be done

     Representation    25      1 modes -  To be done

     Representation    26      1 modes -  To be done

     Representation    27      1 modes -  To be done

     Representation    28      1 modes -  To be done

     Representation    29      1 modes -  To be done

     Representation    30      1 modes -  To be done

     Representation    31      1 modes -  To be done

     Representation    32      1 modes -  To be done

     Representation    33      1 modes -  To be done

     Representation    34      1 modes -  To be done

     Representation    35      1 modes -  To be done

     Representation    36      1 modes -  To be done

     Representation    37      1 modes -  To be done

     Representation    38      1 modes -  To be done

     Representation    39      1 modes -  To be done

     Representation    40      1 modes -  To be done

     Representation    41      1 modes -  To be done

     Representation    42      1 modes -  To be done

     Representation    43      1 modes -  To be done

     Representation    44      1 modes -  To be done

     Representation    45      1 modes -  To be done

     Representation    46      1 modes -  To be done

     Representation    47      1 modes -  To be done

     Representation    48      1 modes -  To be done

     Representation    49      1 modes -  To be done

     Representation    50      1 modes -  To be done

     Representation    51      1 modes -  To be done

     Representation    52      1 modes -  To be done

     Representation    53      1 modes -  To be done

     Representation    54      1 modes -  To be done

     Representation    55      1 modes -  To be done

     Representation    56      1 modes -  To be done

     Representation    57      1 modes -  To be done

     Representation    58      1 modes -  To be done

     Representation    59      1 modes -  To be done

     Representation    60      1 modes -  To be done

     Representation    61      1 modes -  To be done

     Representation    62      1 modes -  To be done

     Representation    63      1 modes -  To be done

     Representation    64      1 modes -  To be done

     Representation    65      1 modes -  To be done

     Representation    66      1 modes -  To be done


     PHONON       :      3h 0m CPU      3h 6m WALL

     Reading dVscf from file dv
     Reading dynamics matrix from file LaYH20.dyn10

     Diagonalizing the dynamical matrix

     q = (    1.279415251   0.738670740   0.132839399 ) 

 **************************************************************************
     freq (    1) =     -63.535256 [THz] =   -2119.308015 [cm-1]
     freq (    2) =     -56.390092 [THz] =   -1880.970986 [cm-1]
     freq (    3) =     -52.276416 [THz] =   -1743.753536 [cm-1]
     freq (    4) =     -49.859680 [THz] =   -1663.139920 [cm-1]
     freq (    5) =     -49.386218 [THz] =   -1647.346905 [cm-1]
     freq (    6) =     -43.743510 [THz] =   -1459.126418 [cm-1]
     freq (    7) =     -33.233263 [THz] =   -1108.542345 [cm-1]
     freq (    8) =     -31.131865 [THz] =   -1038.447249 [cm-1]
     freq (    9) =     -29.303616 [THz] =    -977.463413 [cm-1]
     freq (   10) =     -23.031919 [THz] =    -768.262134 [cm-1]
     freq (   11) =     -21.857511 [THz] =    -729.088101 [cm-1]
     freq (   12) =     -20.243296 [THz] =    -675.243677 [cm-1]
     freq (   13) =     -13.193521 [THz] =    -440.088501 [cm-1]
     freq (   14) =     -12.453686 [THz] =    -415.410256 [cm-1]
     freq (   15) =      -5.765736 [THz] =    -192.324236 [cm-1]
     freq (   16) =      -1.236258 [THz] =     -41.237114 [cm-1]
     freq (   17) =       3.537715 [THz] =     118.005477 [cm-1]
     freq (   18) =       4.398499 [THz] =     146.718125 [cm-1]
     freq (   19) =       4.466988 [THz] =     149.002694 [cm-1]
     freq (   20) =       7.183878 [THz] =     239.628384 [cm-1]
     freq (   21) =       8.382878 [THz] =     279.622713 [cm-1]
     freq (   22) =      10.419889 [THz] =     347.570070 [cm-1]
     freq (   23) =      11.558567 [THz] =     385.552300 [cm-1]
     freq (   24) =      14.972495 [THz] =     499.428680 [cm-1]
     freq (   25) =      19.532716 [THz] =     651.541286 [cm-1]
     freq (   26) =      22.403809 [THz] =     747.310617 [cm-1]
     freq (   27) =      24.170472 [THz] =     806.240159 [cm-1]
     freq (   28) =      24.572593 [THz] =     819.653490 [cm-1]
     freq (   29) =      25.917510 [THz] =     864.515092 [cm-1]
     freq (   30) =      26.347494 [THz] =     878.857809 [cm-1]
     freq (   31) =      26.720733 [THz] =     891.307716 [cm-1]
     freq (   32) =      28.124946 [THz] =     938.147223 [cm-1]
     freq (   33) =      28.256764 [THz] =     942.544185 [cm-1]
     freq (   34) =      28.829832 [THz] =     961.659698 [cm-1]
     freq (   35) =      30.553242 [THz] =    1019.146445 [cm-1]
     freq (   36) =      31.587110 [THz] =    1053.632564 [cm-1]
     freq (   37) =      31.912783 [THz] =    1064.495847 [cm-1]
     freq (   38) =      32.372784 [THz] =    1079.839833 [cm-1]
     freq (   39) =      33.459929 [THz] =    1116.103098 [cm-1]
     freq (   40) =      34.339576 [THz] =    1145.444950 [cm-1]
     freq (   41) =      34.977139 [THz] =    1166.711758 [cm-1]
     freq (   42) =      35.100490 [THz] =    1170.826320 [cm-1]
     freq (   43) =      36.406082 [THz] =    1214.376178 [cm-1]
     freq (   44) =      38.050545 [THz] =    1269.229554 [cm-1]
     freq (   45) =      39.494704 [THz] =    1317.401505 [cm-1]
     freq (   46) =      40.598778 [THz] =    1354.229473 [cm-1]
     freq (   47) =      40.689707 [THz] =    1357.262534 [cm-1]
     freq (   48) =      41.840232 [THz] =    1395.639903 [cm-1]
     freq (   49) =      42.170234 [THz] =    1406.647610 [cm-1]
     freq (   50) =      45.900242 [THz] =    1531.067271 [cm-1]
     freq (   51) =      46.887151 [THz] =    1563.986999 [cm-1]
     freq (   52) =      46.983180 [THz] =    1567.190198 [cm-1]
     freq (   53) =      47.447854 [THz] =    1582.690035 [cm-1]
     freq (   54) =      48.907456 [THz] =    1631.377122 [cm-1]
     freq (   55) =      50.878602 [THz] =    1697.127498 [cm-1]
     freq (   56) =      51.079423 [THz] =    1703.826153 [cm-1]
     freq (   57) =      52.340143 [THz] =    1745.879237 [cm-1]
     freq (   58) =      53.377724 [THz] =    1780.489223 [cm-1]
     freq (   59) =      55.408585 [THz] =    1848.231450 [cm-1]
     freq (   60) =      55.969916 [THz] =    1866.955450 [cm-1]
     freq (   61) =      57.947310 [THz] =    1932.914187 [cm-1]
     freq (   62) =      58.224424 [THz] =    1942.157715 [cm-1]
     freq (   63) =      60.334735 [THz] =    2012.550138 [cm-1]
     freq (   64) =      66.701225 [THz] =    2224.913382 [cm-1]
     freq (   65) =      74.845588 [THz] =    2496.580069 [cm-1]
     freq (   66) =     104.578542 [THz] =    3488.364680 [cm-1]
 **************************************************************************

     [elph_tetra]   Lowest band which contains FS :         15
     [elph_tetra]  Highest band which contains FS :         20
     [elph_tetra]    # of bands which contains FS :          6
 
     Tetrahedron method
     DOS = 10.685926 states/spin/Ry/Unit Cell at Ef= 16.918340 eV
     double delta at Ef =255.801428
     lambda(    1)=  0.0000   gamma=    0.00 GHz
     lambda(    2)=  0.0000   gamma=    0.00 GHz
     lambda(    3)=  0.0000   gamma=    0.00 GHz
     lambda(    4)=  0.0000   gamma=    0.00 GHz
     lambda(    5)=  0.0000   gamma=    0.00 GHz
     lambda(    6)=  0.0000   gamma=    0.00 GHz
     lambda(    7)=  0.0000   gamma=    0.00 GHz
     lambda(    8)=  0.0000   gamma=    0.00 GHz
     lambda(    9)=  0.0000   gamma=    0.00 GHz
     lambda(   10)=  0.0000   gamma=    0.00 GHz
     lambda(   11)=  0.0000   gamma=    0.00 GHz
     lambda(   12)=  0.0000   gamma=    0.00 GHz
     lambda(   13)=  0.0000   gamma=    0.00 GHz
     lambda(   14)=  0.0000   gamma=    0.00 GHz
     lambda(   15)=  0.0000   gamma=    0.00 GHz
     lambda(   16)=  0.0000   gamma=    0.00 GHz
     lambda(   17)=  0.9415   gamma=  120.24 GHz
     lambda(   18)=  0.6110   gamma=  120.63 GHz
     lambda(   19)=  0.7095   gamma=  144.47 GHz
     lambda(   20)=  1.1983   gamma=  631.06 GHz
     lambda(   21)=  0.5670   gamma=  406.58 GHz
     lambda(   22)=  0.5929   gamma=  656.93 GHz
     lambda(   23)=  0.3375   gamma=  460.15 GHz
     lambda(   24)=  0.2564   gamma=  586.51 GHz
     lambda(   25)=  0.1616   gamma=  629.17 GHz
     lambda(   26)=  0.1113   gamma=  570.28 GHz
     lambda(   27)=  0.0171   gamma=  101.72 GHz
     lambda(   28)=  0.0621   gamma=  382.79 GHz
     lambda(   29)=  0.1067   gamma=  731.05 GHz
     lambda(   30)=  0.0161   gamma=  113.80 GHz
     lambda(   31)=  0.0601   gamma=  438.07 GHz
     lambda(   32)=  0.0640   gamma=  516.73 GHz
     lambda(   33)=  0.0375   gamma=  305.76 GHz
     lambda(   34)=  0.0330   gamma=  279.47 GHz
     lambda(   35)=  0.0505   gamma=  480.85 GHz
     lambda(   36)=  0.0333   gamma=  339.00 GHz
     lambda(   37)=  0.0190   gamma=  197.14 GHz
     lambda(   38)=  0.0522   gamma=  557.87 GHz
     lambda(   39)=  0.0222   gamma=  253.74 GHz
     lambda(   40)=  0.0380   gamma=  456.98 GHz
     lambda(   41)=  0.0340   gamma=  424.48 GHz
     lambda(   42)=  0.0148   gamma=  186.37 GHz
     lambda(   43)=  0.0404   gamma=  546.74 GHz
     lambda(   44)=  0.0250   gamma=  369.94 GHz
     lambda(   45)=  0.0317   gamma=  504.60 GHz
     lambda(   46)=  0.0170   gamma=  285.58 GHz
     lambda(   47)=  0.0448   gamma=  757.19 GHz
     lambda(   48)=  0.0256   gamma=  456.51 GHz
     lambda(   49)=  0.0144   gamma=  261.22 GHz
     lambda(   50)=  0.0396   gamma=  850.83 GHz
     lambda(   51)=  0.0292   gamma=  654.58 GHz
     lambda(   52)=  0.0088   gamma=  198.00 GHz
     lambda(   53)=  0.0209   gamma=  480.61 GHz
     lambda(   54)=  0.0123   gamma=  299.11 GHz
     lambda(   55)=  0.0084   gamma=  221.97 GHz
     lambda(   56)=  0.0145   gamma=  386.51 GHz
     lambda(   57)=  0.0165   gamma=  460.93 GHz
     lambda(   58)=  0.0172   gamma=  499.90 GHz
     lambda(   59)=  0.0118   gamma=  368.66 GHz
     lambda(   60)=  0.0160   gamma=  511.31 GHz
     lambda(   61)=  0.0079   gamma=  269.49 GHz
     lambda(   62)=  0.0088   gamma=  303.43 GHz
     lambda(   63)=  0.0158   gamma=  585.37 GHz
     lambda(   64)=  0.0092   gamma=  415.43 GHz
     lambda(   65)=  0.0042   gamma=  240.67 GHz
     lambda(   66)=  0.0022   gamma=  244.14 GHz
 
     Number of q in the star =    6
     List of q in the star:
          1   1.279415251   0.738670740   0.132839399
          2   0.000000000  -1.477341479   0.132839399
          3  -1.279415251   0.738670740   0.132839399
          4  -1.279415251  -0.738670740  -0.132839399
          5   1.279415251  -0.738670740  -0.132839399
          6  -0.000000000   1.477341479  -0.132839399
 
     init_run     :      0.84s CPU      0.92s WALL (      10 calls)
     electrons    :   5600.24s CPU   5808.91s WALL (      10 calls)

     Called by init_run:
     wfcinit      :      0.00s CPU      0.04s WALL (      10 calls)
     potinit      :      0.02s CPU      0.03s WALL (      10 calls)
     hinit0       :      0.34s CPU      0.36s WALL (      10 calls)

     Called by electrons:
     c_bands      :   5586.41s CPU   5795.04s WALL (      10 calls)
     v_of_rho     :      0.01s CPU      0.01s WALL (      11 calls)

     Called by c_bands:
     init_us_2    :    117.99s CPU    121.68s WALL (  660184 calls)
     init_us_2:cp :    116.24s CPU    120.16s WALL (  660184 calls)
     cegterg      :   4754.89s CPU   4843.86s WALL (   58586 calls)

     Called by *egterg:
     cdiaghg      :   1306.52s CPU   1323.16s WALL ( 1016739 calls)
     h_psi        :   3258.27s CPU   3330.03s WALL ( 1075325 calls)
     g_psi        :      9.62s CPU      9.76s WALL (  997139 calls)

     Called by h_psi:
     h_psi:calbec :     86.88s CPU     88.86s WALL ( 1075325 calls)
     vloc_psi     :   3115.65s CPU   3184.27s WALL ( 1075325 calls)
     add_vuspsi   :     40.01s CPU     41.10s WALL ( 1075325 calls)

     General routines
     calbec       :     86.80s CPU     89.33s WALL ( 1114525 calls)
     fft          :      0.01s CPU      0.05s WALL (      33 calls)
     ffts         :    130.83s CPU    143.46s WALL (  646800 calls)
     fftw         :   6964.23s CPU   7143.15s WALL (56856986 calls)
     davcio       :     43.82s CPU    161.35s WALL ( 1301617 calls)
 
     Parallel routines
 
     PHONON       :      3h 9m CPU      3h16m WALL

     INITIALIZATION: 
     phq_setup    :      1.82s CPU      2.46s WALL (      10 calls)
     phq_init     :      5.69s CPU      6.38s WALL (      10 calls)
 
     phq_init     :      5.69s CPU      6.38s WALL (      10 calls)
     init_vloc    :      0.23s CPU      0.23s WALL (      11 calls)
     init_us_1    :      0.15s CPU      0.16s WALL (      11 calls)
     init_us_2    :    117.99s CPU    121.68s WALL (  660184 calls)
 
 
 
 
     dvqpsi_us    :   4363.68s CPU   4499.61s WALL (  646800 calls)
     apply_dpot_b :   1176.88s CPU   1204.95s WALL (  646800 calls)
     vpsifft      :   1187.81s CPU   1216.27s WALL (  646800 calls)
 
     dvqpsi_us    :   4363.68s CPU   4499.61s WALL (  646800 calls)
     dvqpsi_us_on :    346.83s CPU    353.45s WALL (  646800 calls)
 
 
     h_psi        :   3258.27s CPU   3330.03s WALL ( 1075325 calls)
 
     h_psi        :   3258.27s CPU   3330.03s WALL ( 1075325 calls)
     add_vuspsi   :     40.01s CPU     41.10s WALL ( 1075325 calls)
 
 
 
      Electron-phonon coupling
     elphon       :   5745.43s CPU   5920.63s WALL (      10 calls)
     elphel       :   5744.27s CPU   5917.41s WALL (     616 calls)
 
      General routines
     calbec       :     86.80s CPU     89.33s WALL ( 1114525 calls)
     fft          :      0.01s CPU      0.05s WALL (      33 calls)
     ffts         :    130.83s CPU    143.46s WALL (  646800 calls)
     fftw         :   6964.23s CPU   7143.15s WALL (56856986 calls)
     davcio       :     43.82s CPU    161.35s WALL ( 1301617 calls)
 
 
     PHONON       :      3h 9m CPU      3h16m WALL

 
   This run was terminated on:   9:40:18  29May2022            

=------------------------------------------------------------------------------=
   JOB DONE.
=------------------------------------------------------------------------------=
