
     Program PHONON v.7.0 starts on 26May2022 at 19:37:48 

     This program is part of the open-source Quantum ESPRESSO suite
     for quantum simulation of materials; please cite
         "P. Giannozzi et al., J. Phys.:Condens. Matter 21 395502 (2009);
         "P. Giannozzi et al., J. Phys.:Condens. Matter 29 465901 (2017);
         "P. Giannozzi et al., J. Chem. Phys. 152 154105 (2020);
          URL http://www.quantum-espresso.org", 
     in publications or presentations arising from this work. More details at
     http://www.quantum-espresso.org/quote

     Parallel version (MPI), running on    24 processors

     MPI processes distributed on     1 nodes
     R & G space division:  proc/nbgrp/npool/nimage =      24
     325664 MiB available memory on the printing compute node when the environment starts
 
     Reading input from /home/mgrebenyuk/QE/Examples/LaYH20/190GPa/4x4x4/ph.in

     Reading xml data from directory:

     ./LaYH20.save/

     IMPORTANT: XC functional enforced from input :
     Exchange-correlation= PZ
                           (   1   1   0   0   0   0   0)
     Any further DFT definition will be discarded
     Please, verify this is what you really want

 
     Parallelization info
     --------------------
     sticks:   dense  smooth     PW     G-vecs:    dense   smooth      PW
     Min          72      72     22                 1527     1527     264
     Max          73      73     23                 1530     1530     267
     Sum        1751    1751    543                36689    36689    6369
 
     Using Slab Decomposition
 
     Reading collected, re-writing distributed wavefunctions


     Dynamical matrices for ( 4, 4, 4)  uniform grid of q-points
     With a half shift
     (  10 q-points):
       N         xq(1)         xq(2)         xq(3) 
       1   0.000000000   0.000000000   0.132839399
       2  -0.426471750  -0.246223580   0.221398998
       3   0.852943501   0.492447160  -0.044279800
       4   0.426471750   0.246223580   0.044279800
       5  -0.426471750   0.246223580   0.309958597
       6   0.852943501   0.984894319   0.044279800
       7   0.426471750   0.738670740   0.132839399
       8   0.852943501  -0.492447160  -0.221398998
       9   0.000000000   0.000000000   0.398518196
      10   1.279415251   0.738670740   0.132839399
     Because shifted q grid is used, q2r will not work !

     Saving dvscf to file. Distribute only q points, not irreducible represetations.

     Calculation of q =    0.0000000   0.0000000   0.1328394

     Subspace diagonalization in iterative solution of the eigenvalue problem:
     a serial algorithm will be used

     [opt_tetra]  Optimized tetrahedron method is used.
 
     Parallelization info
     --------------------
     sticks:   dense  smooth     PW     G-vecs:    dense   smooth      PW
     Min          72      72     22                 1527     1527     264
     Max          73      73     23                 1530     1530     267
     Sum        1751    1751    547                36689    36689    6387
 
     Using Slab Decomposition
 

     Title: 
     Electron-phonon coefficients for LaYH20                                    


     bravais-lattice index     =            5
     lattice parameter (alat)  =      11.0632  a.u.
     unit-cell volume          =     379.1881 (a.u.)^3
     number of atoms/cell      =           22
     number of atomic types    =            3
     number of electrons       =        34.00
     number of Kohn-Sham states=           21
     kinetic-energy cutoff     =      80.0000  Ry
     charge density cutoff     =     320.0000  Ry
     Exchange-correlation= PZ
                           (   1   1   0   0   0   0   0)

     celldm(1)=  11.063193  celldm(2)=   0.000000  celldm(3)=   0.000000
     celldm(4)=   0.828182  celldm(5)=   0.000000  celldm(6)=   0.000000

     crystal axes: (cart. coord. in units of alat)
               a(1) = (   0.293103  -0.169223   0.940986 )  
               a(2) = (   0.000000   0.338446   0.940986 )  
               a(3) = (  -0.293103  -0.169223   0.940986 )  

     reciprocal axes: (cart. coord. in units 2 pi/alat)
               b(1) = (  1.705887 -0.984894  0.354238 )  
               b(2) = (  0.000000  1.969789  0.354238 )  
               b(3) = ( -1.705887 -0.984894  0.354238 )  


     PseudoPot. # 1 for La read from file:
     ./La.UPF
     MD5 check sum: 8e5991bce12d7f16f732aa20d6589152
     Pseudo is Norm-conserving, Zval = 11.0
     Generated in analytical, separable form
     Using radial grid of 1253 points,  7 beta functions with: 
                l(1) =   0
                l(2) =   0
                l(3) =   1
                l(4) =   1
                l(5) =   1
                l(6) =   2
                l(7) =   3

     PseudoPot. # 2 for H  read from file:
     ./H.UPF
     MD5 check sum: df8e43189db5a2d7f03d0dd74d71ce72
     Pseudo is Norm-conserving, Zval =  1.0
     Generated in analytical, separable form
     Using radial grid of  929 points,  0 beta functions with: 

     PseudoPot. # 3 for Y  read from file:
     ./Y.UPF
     MD5 check sum: 28b92b02874aa0fef5f1b1d2b706803c
     Pseudo is Norm-conserving, Zval =  3.0
     Generated in analytical, separable form
     Using radial grid of 1223 points,  7 beta functions with: 
                l(1) =   0
                l(2) =   0
                l(3) =   0
                l(4) =   1
                l(5) =   1
                l(6) =   2
                l(7) =   2

     atomic species   valence    mass     pseudopotential
        La            11.00   138.90547     La( 1.00)
        H              1.00     1.00794     H ( 1.00)
        Y              3.00    88.90585     Y ( 1.00)

     12 Sym. Ops., with inversion, found



   Cartesian axes

     site n.     atom                  positions (alat units)
         1           La  tau(   1) = (   0.0000000  -0.0000000   1.4114788  )
         2           Y   tau(   2) = (   0.0000000   0.0000000   0.0000000  )
         3           H   tau(   3) = (  -0.1429213   0.0825157   2.1619650  )
         4           H   tau(   4) = (   0.0000000  -0.1650314   2.1619650  )
         5           H   tau(   5) = (   0.1429213   0.0825157   2.1619650  )
         6           H   tau(   6) = (  -0.1429213  -0.0825157   0.6609927  )
         7           H   tau(   7) = (   0.0000000   0.1650314   0.6609927  )
         8           H   tau(   8) = (   0.1429213  -0.0825157   0.6609927  )
         9           H   tau(   9) = (   0.1519649  -0.0877370   1.7196022  )
        10           H   tau(  10) = (   0.0000000   0.1754740   1.7196022  )
        11           H   tau(  11) = (  -0.1519649  -0.0877370   1.7196022  )
        12           H   tau(  12) = (   0.1519649   0.0877370   1.1033554  )
        13           H   tau(  13) = (   0.0000000  -0.1754740   1.1033554  )
        14           H   tau(  14) = (  -0.1519649   0.0877370   1.1033554  )
        15           H   tau(  15) = (   0.0000000  -0.0000000   2.2801626  )
        16           H   tau(  16) = (   0.0000000  -0.0000000   0.5427951  )
        17           H   tau(  17) = (   0.0000000  -0.0000000   1.9453439  )
        18           H   tau(  18) = (   0.0000000  -0.0000000   0.8776138  )
        19           H   tau(  19) = (   0.0000000  -0.0000000   2.4757085  )
        20           H   tau(  20) = (   0.0000000  -0.0000000   0.3472491  )
        21           H   tau(  21) = (   0.0000000  -0.0000000   1.0612670  )
        22           H   tau(  22) = (   0.0000000  -0.0000000   1.7616907  )

     number of k points=   728 (tetrahedron method)

     Number of k-points >= 100: set verbosity='high' to print them.

     Dense  grid:    36689 G-vectors     FFT dimensions: (  64,  64,  64)

     Estimated max dynamical RAM per process >      10.19 MB

     Estimated total dynamical RAM >     244.58 MB

     The potential is recalculated from file :
     ./_ph0/LaYH20.q_1/LaYH20.save/charge-density

     Starting wfcs are   20 atomic +    1 random wfcs

     Band Structure Calculation
     Davidson diagonalization with overlap
     c_bands:  1 eigenvalues not converged
     c_bands:  1 eigenvalues not converged
     c_bands:  1 eigenvalues not converged
     c_bands:  1 eigenvalues not converged
     c_bands:  1 eigenvalues not converged
     c_bands:  1 eigenvalues not converged
     c_bands:  1 eigenvalues not converged
     c_bands:  1 eigenvalues not converged
     c_bands:  1 eigenvalues not converged
     c_bands:  1 eigenvalues not converged

     ethr =  2.94E-11,  avg # of iterations = 50.5

     total cpu time spent up to now is      165.7 secs

     End of band structure calculation

     Number of k-points >= 100: set verbosity='high' to print the bands.

     the Fermi energy is    16.9183 ev

     Writing config to output data dir ./_ph0/LaYH20.q_1/LaYH20.save/
 
     [dfpt_tetra]  Dos(E_F)[/Ry] :   0.2137185E+02

     Electron-phonon coefficients for LaYH20                                    

     bravais-lattice index     =            5
     lattice parameter (alat)  =      11.0632  a.u.
     unit-cell volume          =     379.1881 (a.u.)^3
     number of atoms/cell      =           22
     number of atomic types    =            3
     kinetic-energy cut-off    =      80.0000  Ry
     charge density cut-off    =     320.0000  Ry
     convergence threshold     =      1.0E-08
     beta                      =       0.7000
     number of iterations used =            4
     Exchange-correlation= PZ
                           (   1   1   0   0   0   0   0)


     celldm(1)=   11.06319  celldm(2)=    0.00000  celldm(3)=    0.00000
     celldm(4)=    0.82818  celldm(5)=    0.00000  celldm(6)=    0.00000

     crystal axes: (cart. coord. in units of alat)
               a(1) = (  0.2931 -0.1692  0.9410 )  
               a(2) = (  0.0000  0.3384  0.9410 )  
               a(3) = ( -0.2931 -0.1692  0.9410 )  

     reciprocal axes: (cart. coord. in units 2 pi/alat)
               b(1) = (  1.7059 -0.9849  0.3542 )  
               b(2) = (  0.0000  1.9698  0.3542 )  
               b(3) = ( -1.7059 -0.9849  0.3542 )  


     Atoms inside the unit cell: 

     Cartesian axes

     site n.  atom      mass           positions (alat units)
        1     La 138.9055   tau(    1) = (    0.00000   -0.00000    1.41148  )
        2     Y   88.9059   tau(    2) = (    0.00000    0.00000    0.00000  )
        3     H    1.0079   tau(    3) = (   -0.14292    0.08252    2.16197  )
        4     H    1.0079   tau(    4) = (    0.00000   -0.16503    2.16197  )
        5     H    1.0079   tau(    5) = (    0.14292    0.08252    2.16197  )
        6     H    1.0079   tau(    6) = (   -0.14292   -0.08252    0.66099  )
        7     H    1.0079   tau(    7) = (    0.00000    0.16503    0.66099  )
        8     H    1.0079   tau(    8) = (    0.14292   -0.08252    0.66099  )
        9     H    1.0079   tau(    9) = (    0.15196   -0.08774    1.71960  )
       10     H    1.0079   tau(   10) = (    0.00000    0.17547    1.71960  )
       11     H    1.0079   tau(   11) = (   -0.15196   -0.08774    1.71960  )
       12     H    1.0079   tau(   12) = (    0.15196    0.08774    1.10336  )
       13     H    1.0079   tau(   13) = (    0.00000   -0.17547    1.10336  )
       14     H    1.0079   tau(   14) = (   -0.15196    0.08774    1.10336  )
       15     H    1.0079   tau(   15) = (    0.00000   -0.00000    2.28016  )
       16     H    1.0079   tau(   16) = (    0.00000   -0.00000    0.54280  )
       17     H    1.0079   tau(   17) = (    0.00000   -0.00000    1.94534  )
       18     H    1.0079   tau(   18) = (    0.00000   -0.00000    0.87761  )
       19     H    1.0079   tau(   19) = (    0.00000   -0.00000    2.47571  )
       20     H    1.0079   tau(   20) = (    0.00000   -0.00000    0.34725  )
       21     H    1.0079   tau(   21) = (    0.00000   -0.00000    1.06127  )
       22     H    1.0079   tau(   22) = (    0.00000   -0.00000    1.76169  )

     Computing dynamical matrix for 
                    q = (   0.0000000   0.0000000   0.1328394 )
 
      6 Sym.Ops. (no q -> -q+G )


     G cutoff =  992.0904  (   1529 G-vectors)     FFT grid: ( 64, 64, 64)
     number of k points=   728

     PseudoPot. # 1 for La read from file:
     ./La.UPF
     MD5 check sum: 8e5991bce12d7f16f732aa20d6589152
     Pseudo is Norm-conserving, Zval = 11.0
     Generated in analytical, separable form
     Using radial grid of 1253 points,  7 beta functions with: 
                l(1) =   0
                l(2) =   0
                l(3) =   1
                l(4) =   1
                l(5) =   1
                l(6) =   2
                l(7) =   3

     PseudoPot. # 2 for H  read from file:
     ./H.UPF
     MD5 check sum: df8e43189db5a2d7f03d0dd74d71ce72
     Pseudo is Norm-conserving, Zval =  1.0
     Generated in analytical, separable form
     Using radial grid of  929 points,  0 beta functions with: 

     PseudoPot. # 3 for Y  read from file:
     ./Y.UPF
     MD5 check sum: 28b92b02874aa0fef5f1b1d2b706803c
     Pseudo is Norm-conserving, Zval =  3.0
     Generated in analytical, separable form
     Using radial grid of 1223 points,  7 beta functions with: 
                l(1) =   0
                l(2) =   0
                l(3) =   0
                l(4) =   1
                l(5) =   1
                l(6) =   2
                l(7) =   2

     Mode symmetry, C_3v (3m)   point group:


     Atomic displacements:
     There are   44 irreducible representations

     Representation     1      1 modes -  To be done

     Representation     2      1 modes -  To be done

     Representation     3      1 modes -  To be done

     Representation     4      1 modes -  To be done

     Representation     5      1 modes -  To be done

     Representation     6      1 modes -  To be done

     Representation     7      1 modes -  To be done

     Representation     8      1 modes -  To be done

     Representation     9      1 modes -  To be done

     Representation    10      1 modes -  To be done

     Representation    11      1 modes -  To be done

     Representation    12      1 modes -  To be done

     Representation    13      1 modes -  To be done

     Representation    14      1 modes -  To be done

     Representation    15      1 modes -  To be done

     Representation    16      1 modes -  To be done

     Representation    17      1 modes -  To be done

     Representation    18      1 modes -  To be done

     Representation    19      1 modes -  To be done

     Representation    20      1 modes -  To be done

     Representation    21      1 modes -  To be done

     Representation    22      1 modes -  To be done

     Representation    23      2 modes -  To be done

     Representation    24      2 modes -  To be done

     Representation    25      2 modes -  To be done

     Representation    26      2 modes -  To be done

     Representation    27      2 modes -  To be done

     Representation    28      2 modes -  To be done

     Representation    29      2 modes -  To be done

     Representation    30      2 modes -  To be done

     Representation    31      2 modes -  To be done

     Representation    32      2 modes -  To be done

     Representation    33      2 modes -  To be done

     Representation    34      2 modes -  To be done

     Representation    35      2 modes -  To be done

     Representation    36      2 modes -  To be done

     Representation    37      2 modes -  To be done

     Representation    38      2 modes -  To be done

     Representation    39      2 modes -  To be done

     Representation    40      2 modes -  To be done

     Representation    41      2 modes -  To be done

     Representation    42      2 modes -  To be done

     Representation    43      2 modes -  To be done

     Representation    44      2 modes -  To be done



     Alpha used in Ewald sum =   2.8000
     PHONON       :   2m44.61s CPU   2m52.64s WALL



     Representation #   1 mode #   1

     Self-consistent Calculation

      iter #   1 total cpu time :   190.2 secs   av.it.:   4.9
      thresh= 1.000E-02 alpha_mix =  0.700 |ddv_scf|^2 =  5.487E-03

      iter #   2 total cpu time :   238.8 secs   av.it.:  11.6
      thresh= 7.407E-03 alpha_mix =  0.700 |ddv_scf|^2 =  1.696E+02

      iter #   3 total cpu time :   275.8 secs   av.it.:  11.2
      thresh= 1.000E-02 alpha_mix =  0.700 |ddv_scf|^2 =  5.247E-02

      iter #   4 total cpu time :   294.9 secs   av.it.:   6.8
      thresh= 1.000E-02 alpha_mix =  0.700 |ddv_scf|^2 =  1.069E-05

      iter #   5 total cpu time :   330.2 secs   av.it.:  13.2
      thresh= 3.270E-04 alpha_mix =  0.700 |ddv_scf|^2 =  3.455E-04

      iter #   6 total cpu time :   346.7 secs   av.it.:   5.4
      thresh= 1.859E-03 alpha_mix =  0.700 |ddv_scf|^2 =  3.681E-03

      iter #   7 total cpu time :   367.8 secs   av.it.:   7.3
      thresh= 6.067E-03 alpha_mix =  0.700 |ddv_scf|^2 =  2.762E-06

      iter #   8 total cpu time :   396.7 secs   av.it.:  11.1
      thresh= 1.662E-04 alpha_mix =  0.700 |ddv_scf|^2 =  4.167E-07

      iter #   9 total cpu time :   427.1 secs   av.it.:  11.8
      thresh= 6.456E-05 alpha_mix =  0.700 |ddv_scf|^2 =  1.002E-05

      iter #  10 total cpu time :   439.7 secs   av.it.:   3.5
      thresh= 3.166E-04 alpha_mix =  0.700 |ddv_scf|^2 =  5.029E-09

     End of self-consistent calculation

     Convergence has been achieved 


     Representation #   2 mode #   2

     Self-consistent Calculation

      iter #   1 total cpu time :   462.3 secs   av.it.:   5.2
      thresh= 1.000E-02 alpha_mix =  0.700 |ddv_scf|^2 =  1.201E-02

      iter #   2 total cpu time :   494.3 secs   av.it.:  11.8
      thresh= 1.000E-02 alpha_mix =  0.700 |ddv_scf|^2 =  3.713E+02

      iter #   3 total cpu time :   530.8 secs   av.it.:  11.8
      thresh= 1.000E-02 alpha_mix =  0.700 |ddv_scf|^2 =  1.152E-01

      iter #   4 total cpu time :   551.0 secs   av.it.:   7.4
      thresh= 1.000E-02 alpha_mix =  0.700 |ddv_scf|^2 =  3.197E-05

      iter #   5 total cpu time :   597.1 secs   av.it.:  12.8
      thresh= 5.654E-04 alpha_mix =  0.700 |ddv_scf|^2 =  5.047E-05

      iter #   6 total cpu time :   629.2 secs   av.it.:  10.9
      thresh= 7.104E-04 alpha_mix =  0.700 |ddv_scf|^2 =  3.803E-02

      iter #   7 total cpu time :   674.4 secs   av.it.:   5.9
      thresh= 1.000E-02 alpha_mix =  0.700 |ddv_scf|^2 =  1.793E-05

      iter #   8 total cpu time :   706.4 secs   av.it.:  10.7
      thresh= 4.235E-04 alpha_mix =  0.700 |ddv_scf|^2 =  1.789E-06

      iter #   9 total cpu time :   739.3 secs   av.it.:  11.8
      thresh= 1.338E-04 alpha_mix =  0.700 |ddv_scf|^2 =  4.237E-05

      iter #  10 total cpu time :   756.4 secs   av.it.:   5.3
      thresh= 6.509E-04 alpha_mix =  0.700 |ddv_scf|^2 =  4.184E-08

      iter #  11 total cpu time :   786.6 secs   av.it.:  11.2
      thresh= 2.046E-05 alpha_mix =  0.700 |ddv_scf|^2 =  9.303E-09

     End of self-consistent calculation

     Convergence has been achieved 


     Representation #   3 mode #   3

     Self-consistent Calculation

      iter #   1 total cpu time :   803.2 secs   av.it.:   5.3
      thresh= 1.000E-02 alpha_mix =  0.700 |ddv_scf|^2 =  3.698E-02

      iter #   2 total cpu time :   835.8 secs   av.it.:  12.7
      thresh= 1.000E-02 alpha_mix =  0.700 |ddv_scf|^2 =  1.143E+03

      iter #   3 total cpu time :   885.7 secs   av.it.:  12.8
      thresh= 1.000E-02 alpha_mix =  0.700 |ddv_scf|^2 =  3.525E-01

      iter #   4 total cpu time :   908.8 secs   av.it.:   8.3
      thresh= 1.000E-02 alpha_mix =  0.700 |ddv_scf|^2 =  5.070E-05

      iter #   5 total cpu time :   943.0 secs   av.it.:  13.4
      thresh= 7.120E-04 alpha_mix =  0.700 |ddv_scf|^2 =  2.840E-03

      iter #   6 total cpu time :   976.0 secs   av.it.:   5.2
      thresh= 5.329E-03 alpha_mix =  0.700 |ddv_scf|^2 =  1.929E-02

      iter #   7 total cpu time :  1003.1 secs   av.it.:   8.0
      thresh= 1.000E-02 alpha_mix =  0.700 |ddv_scf|^2 =  5.996E-06

      iter #   8 total cpu time :  1036.9 secs   av.it.:  12.1
      thresh= 2.449E-04 alpha_mix =  0.700 |ddv_scf|^2 =  3.614E-06

      iter #   9 total cpu time :  1066.7 secs   av.it.:  11.5
      thresh= 1.901E-04 alpha_mix =  0.700 |ddv_scf|^2 =  1.591E-05

      iter #  10 total cpu time :  1085.7 secs   av.it.:   5.6
      thresh= 3.989E-04 alpha_mix =  0.700 |ddv_scf|^2 =  2.175E-08

      iter #  11 total cpu time :  1123.1 secs   av.it.:  10.8
      thresh= 1.475E-05 alpha_mix =  0.700 |ddv_scf|^2 =  1.561E-08

      iter #  12 total cpu time :  1162.3 secs   av.it.:   9.7
      thresh= 1.249E-05 alpha_mix =  0.700 |ddv_scf|^2 =  1.743E-10

     End of self-consistent calculation

     Convergence has been achieved 


     Representation #   4 mode #   4

     Self-consistent Calculation

      iter #   1 total cpu time :  1180.1 secs   av.it.:   5.3
      thresh= 1.000E-02 alpha_mix =  0.700 |ddv_scf|^2 =  3.670E-02

      iter #   2 total cpu time :  1212.7 secs   av.it.:  12.7
      thresh= 1.000E-02 alpha_mix =  0.700 |ddv_scf|^2 =  1.135E+03

      iter #   3 total cpu time :  1245.2 secs   av.it.:  12.8
      thresh= 1.000E-02 alpha_mix =  0.700 |ddv_scf|^2 =  3.520E-01

      iter #   4 total cpu time :  1269.1 secs   av.it.:   8.4
      thresh= 1.000E-02 alpha_mix =  0.700 |ddv_scf|^2 =  1.045E-04

      iter #   5 total cpu time :  1313.0 secs   av.it.:  12.7
      thresh= 1.022E-03 alpha_mix =  0.700 |ddv_scf|^2 =  1.569E-03

      iter #   6 total cpu time :  1332.2 secs   av.it.:   6.4
      thresh= 3.961E-03 alpha_mix =  0.700 |ddv_scf|^2 =  3.352E-02

      iter #   7 total cpu time :  1355.3 secs   av.it.:   8.0
      thresh= 1.000E-02 alpha_mix =  0.700 |ddv_scf|^2 =  9.970E-06

      iter #   8 total cpu time :  1392.2 secs   av.it.:  11.9
      thresh= 3.157E-04 alpha_mix =  0.700 |ddv_scf|^2 =  3.312E-06

      iter #   9 total cpu time :  1422.6 secs   av.it.:  11.8
      thresh= 1.820E-04 alpha_mix =  0.700 |ddv_scf|^2 =  1.627E-05

      iter #  10 total cpu time :  1486.1 secs   av.it.:   5.6
      thresh= 4.033E-04 alpha_mix =  0.700 |ddv_scf|^2 =  1.406E-08

      iter #  11 total cpu time :  1515.1 secs   av.it.:  11.5
      thresh= 1.186E-05 alpha_mix =  0.700 |ddv_scf|^2 =  2.078E-08

      iter #  12 total cpu time :  1544.4 secs   av.it.:   9.9
      thresh= 1.441E-05 alpha_mix =  0.700 |ddv_scf|^2 =  8.743E-11

     End of self-consistent calculation

     Convergence has been achieved 


     Representation #   5 mode #   5

     Self-consistent Calculation

      iter #   1 total cpu time :  1573.7 secs   av.it.:   6.4
      thresh= 1.000E-02 alpha_mix =  0.700 |ddv_scf|^2 =  1.106E-01

      iter #   2 total cpu time :  1610.7 secs   av.it.:  13.7
      thresh= 1.000E-02 alpha_mix =  0.700 |ddv_scf|^2 =  3.420E+03

      iter #   3 total cpu time :  1644.9 secs   av.it.:  13.7
      thresh= 1.000E-02 alpha_mix =  0.700 |ddv_scf|^2 =  1.056E+00

      iter #   4 total cpu time :  1678.6 secs   av.it.:   9.2
      thresh= 1.000E-02 alpha_mix =  0.700 |ddv_scf|^2 =  1.902E-04

      iter #   5 total cpu time :  1712.1 secs   av.it.:  13.1
      thresh= 1.379E-03 alpha_mix =  0.700 |ddv_scf|^2 =  3.017E-04

      iter #   6 total cpu time :  1741.7 secs   av.it.:  11.5
      thresh= 1.737E-03 alpha_mix =  0.700 |ddv_scf|^2 =  5.638E-02

      iter #   7 total cpu time :  1756.3 secs   av.it.:   4.5
      thresh= 1.000E-02 alpha_mix =  0.700 |ddv_scf|^2 =  1.339E-05

      iter #   8 total cpu time :  1790.8 secs   av.it.:  12.4
      thresh= 3.659E-04 alpha_mix =  0.700 |ddv_scf|^2 =  6.942E-06

      iter #   9 total cpu time :  1821.0 secs   av.it.:  11.8
      thresh= 2.635E-04 alpha_mix =  0.700 |ddv_scf|^2 =  2.869E-05

      iter #  10 total cpu time :  1842.4 secs   av.it.:   4.0
      thresh= 5.357E-04 alpha_mix =  0.700 |ddv_scf|^2 =  2.837E-08

      iter #  11 total cpu time :  1877.5 secs   av.it.:  10.7
      thresh= 1.684E-05 alpha_mix =  0.700 |ddv_scf|^2 =  1.734E-09

     End of self-consistent calculation

     Convergence has been achieved 


     Representation #   6 mode #   6

     Self-consistent Calculation

      iter #   1 total cpu time :  1894.9 secs   av.it.:   5.3
      thresh= 1.000E-02 alpha_mix =  0.700 |ddv_scf|^2 =  3.670E-02

      iter #   2 total cpu time :  1928.1 secs   av.it.:  12.7
      thresh= 1.000E-02 alpha_mix =  0.700 |ddv_scf|^2 =  1.135E+03

      iter #   3 total cpu time :  1975.6 secs   av.it.:  12.8
      thresh= 1.000E-02 alpha_mix =  0.700 |ddv_scf|^2 =  3.520E-01

      iter #   4 total cpu time :  2003.6 secs   av.it.:   8.4
      thresh= 1.000E-02 alpha_mix =  0.700 |ddv_scf|^2 =  1.046E-04

      iter #   5 total cpu time :  2041.0 secs   av.it.:  12.7
      thresh= 1.023E-03 alpha_mix =  0.700 |ddv_scf|^2 =  2.122E-03

      iter #   6 total cpu time :  2065.0 secs   av.it.:   5.7
      thresh= 4.606E-03 alpha_mix =  0.700 |ddv_scf|^2 =  2.532E-02

      iter #   7 total cpu time :  2088.3 secs   av.it.:   8.0
      thresh= 1.000E-02 alpha_mix =  0.700 |ddv_scf|^2 =  7.898E-06

      iter #   8 total cpu time :  2128.4 secs   av.it.:  12.0
      thresh= 2.810E-04 alpha_mix =  0.700 |ddv_scf|^2 =  3.242E-06

      iter #   9 total cpu time :  2159.5 secs   av.it.:  11.7
      thresh= 1.801E-04 alpha_mix =  0.700 |ddv_scf|^2 =  1.365E-05

      iter #  10 total cpu time :  2199.2 secs   av.it.:   5.6
      thresh= 3.694E-04 alpha_mix =  0.700 |ddv_scf|^2 =  1.123E-08

      iter #  11 total cpu time :  2230.3 secs   av.it.:  11.4
      thresh= 1.060E-05 alpha_mix =  0.700 |ddv_scf|^2 =  1.646E-08

      iter #  12 total cpu time :  2256.8 secs   av.it.:   9.7
      thresh= 1.283E-05 alpha_mix =  0.700 |ddv_scf|^2 =  7.609E-11

     End of self-consistent calculation

     Convergence has been achieved 


     Representation #   7 mode #   7

     Self-consistent Calculation

      iter #   1 total cpu time :  2276.0 secs   av.it.:   6.2
      thresh= 1.000E-02 alpha_mix =  0.700 |ddv_scf|^2 =  1.082E-01

      iter #   2 total cpu time :  2332.6 secs   av.it.:  13.6
      thresh= 1.000E-02 alpha_mix =  0.700 |ddv_scf|^2 =  3.344E+03

      iter #   3 total cpu time :  2366.8 secs   av.it.:  13.7
      thresh= 1.000E-02 alpha_mix =  0.700 |ddv_scf|^2 =  1.036E+00

      iter #   4 total cpu time :  2391.3 secs   av.it.:   9.2
      thresh= 1.000E-02 alpha_mix =  0.700 |ddv_scf|^2 =  2.716E-04

      iter #   5 total cpu time :  2431.8 secs   av.it.:  12.8
      thresh= 1.648E-03 alpha_mix =  0.700 |ddv_scf|^2 =  3.751E-04

      iter #   6 total cpu time :  2464.4 secs   av.it.:  11.2
      thresh= 1.937E-03 alpha_mix =  0.700 |ddv_scf|^2 =  3.166E-01

      iter #   7 total cpu time :  2498.1 secs   av.it.:   7.3
      thresh= 1.000E-02 alpha_mix =  0.700 |ddv_scf|^2 =  7.975E-05

      iter #   8 total cpu time :  2534.3 secs   av.it.:  11.1
      thresh= 8.930E-04 alpha_mix =  0.700 |ddv_scf|^2 =  1.091E-05

      iter #   9 total cpu time :  2566.8 secs   av.it.:  11.9
      thresh= 3.303E-04 alpha_mix =  0.700 |ddv_scf|^2 =  1.182E-04

      iter #  10 total cpu time :  2593.9 secs   av.it.:   4.6
      thresh= 1.087E-03 alpha_mix =  0.700 |ddv_scf|^2 =  1.199E-07

      iter #  11 total cpu time :  2625.4 secs   av.it.:  11.8
      thresh= 3.462E-05 alpha_mix =  0.700 |ddv_scf|^2 =  6.141E-08

      iter #  12 total cpu time :  2657.7 secs   av.it.:  11.2
      thresh= 2.478E-05 alpha_mix =  0.700 |ddv_scf|^2 =  3.388E-10

     End of self-consistent calculation

     Convergence has been achieved 


     Representation #   8 mode #   8

     Self-consistent Calculation

      iter #   1 total cpu time :  2683.6 secs   av.it.:   5.1
      thresh= 1.000E-02 alpha_mix =  0.700 |ddv_scf|^2 =  3.674E-02

      iter #   2 total cpu time :  2719.3 secs   av.it.:  12.7
      thresh= 1.000E-02 alpha_mix =  0.700 |ddv_scf|^2 =  1.136E+03

      iter #   3 total cpu time :  2758.9 secs   av.it.:  12.8
      thresh= 1.000E-02 alpha_mix =  0.700 |ddv_scf|^2 =  3.524E-01

      iter #   4 total cpu time :  2794.7 secs   av.it.:   8.4
      thresh= 1.000E-02 alpha_mix =  0.700 |ddv_scf|^2 =  1.181E-04

      iter #   5 total cpu time :  2827.3 secs   av.it.:  12.6
      thresh= 1.087E-03 alpha_mix =  0.700 |ddv_scf|^2 =  5.621E-04

      iter #   6 total cpu time :  2851.5 secs   av.it.:   8.5
      thresh= 2.371E-03 alpha_mix =  0.700 |ddv_scf|^2 =  8.254E-02

      iter #   7 total cpu time :  2880.5 secs   av.it.:   7.9
      thresh= 1.000E-02 alpha_mix =  0.700 |ddv_scf|^2 =  2.537E-05

      iter #   8 total cpu time :  2910.6 secs   av.it.:  11.1
      thresh= 5.037E-04 alpha_mix =  0.700 |ddv_scf|^2 =  3.192E-06

      iter #   9 total cpu time :  2943.7 secs   av.it.:  12.0
      thresh= 1.787E-04 alpha_mix =  0.700 |ddv_scf|^2 =  1.233E-05

      iter #  10 total cpu time :  2961.9 secs   av.it.:   5.9
      thresh= 3.511E-04 alpha_mix =  0.700 |ddv_scf|^2 =  4.180E-08

      iter #  11 total cpu time :  3008.9 secs   av.it.:  11.3
      thresh= 2.044E-05 alpha_mix =  0.700 |ddv_scf|^2 =  3.061E-08

      iter #  12 total cpu time :  3036.5 secs   av.it.:  10.4
      thresh= 1.750E-05 alpha_mix =  0.700 |ddv_scf|^2 =  4.070E-11

     End of self-consistent calculation

     Convergence has been achieved 


     Representation #   9 mode #   9

     Self-consistent Calculation

      iter #   1 total cpu time :  3063.0 secs   av.it.:   9.4
      thresh= 1.000E-02 alpha_mix =  0.700 |ddv_scf|^2 =  4.469E+00

      iter #   2 total cpu time :  3112.4 secs   av.it.:  17.0
      thresh= 1.000E-02 alpha_mix =  0.700 |ddv_scf|^2 =  1.382E+05

      iter #   3 total cpu time :  3171.8 secs   av.it.:  17.0
      thresh= 1.000E-02 alpha_mix =  0.700 |ddv_scf|^2 =  4.252E+01

      iter #   4 total cpu time :  3202.0 secs   av.it.:  11.9
      thresh= 1.000E-02 alpha_mix =  0.700 |ddv_scf|^2 =  4.908E-03

      iter #   5 total cpu time :  3235.5 secs   av.it.:  13.1
      thresh= 7.006E-03 alpha_mix =  0.700 |ddv_scf|^2 =  1.730E-02

      iter #   6 total cpu time :  3273.0 secs   av.it.:  11.8
      thresh= 1.000E-02 alpha_mix =  0.700 |ddv_scf|^2 =  6.329E+00

      iter #   7 total cpu time :  3299.0 secs   av.it.:   9.6
      thresh= 1.000E-02 alpha_mix =  0.700 |ddv_scf|^2 =  2.275E-03

      iter #   8 total cpu time :  3327.2 secs   av.it.:  10.9
      thresh= 4.770E-03 alpha_mix =  0.700 |ddv_scf|^2 =  3.234E-04

      iter #   9 total cpu time :  3359.1 secs   av.it.:  11.7
      thresh= 1.798E-03 alpha_mix =  0.700 |ddv_scf|^2 =  5.128E-04

      iter #  10 total cpu time :  3377.6 secs   av.it.:   6.5
      thresh= 2.265E-03 alpha_mix =  0.700 |ddv_scf|^2 =  6.278E-06

      iter #  11 total cpu time :  3414.8 secs   av.it.:  10.5
      thresh= 2.506E-04 alpha_mix =  0.700 |ddv_scf|^2 =  9.348E-07

      iter #  12 total cpu time :  3443.6 secs   av.it.:  11.1
      thresh= 9.668E-05 alpha_mix =  0.700 |ddv_scf|^2 =  9.382E-09

     End of self-consistent calculation

     Convergence has been achieved 


     Representation #  10 mode #  10

     Self-consistent Calculation

      iter #   1 total cpu time :  3464.7 secs   av.it.:   6.3
      thresh= 1.000E-02 alpha_mix =  0.700 |ddv_scf|^2 =  1.052E-01

      iter #   2 total cpu time :  3502.4 secs   av.it.:  13.6
      thresh= 1.000E-02 alpha_mix =  0.700 |ddv_scf|^2 =  3.254E+03

      iter #   3 total cpu time :  3537.3 secs   av.it.:  13.6
      thresh= 1.000E-02 alpha_mix =  0.700 |ddv_scf|^2 =  1.005E+00

      iter #   4 total cpu time :  3562.9 secs   av.it.:   9.1
      thresh= 1.000E-02 alpha_mix =  0.700 |ddv_scf|^2 =  1.798E-04

      iter #   5 total cpu time :  3600.2 secs   av.it.:  13.1
      thresh= 1.341E-03 alpha_mix =  0.700 |ddv_scf|^2 =  5.024E-04

      iter #   6 total cpu time :  3628.4 secs   av.it.:  10.7
      thresh= 2.241E-03 alpha_mix =  0.700 |ddv_scf|^2 =  3.819E-01

      iter #   7 total cpu time :  3654.1 secs   av.it.:   7.9
      thresh= 1.000E-02 alpha_mix =  0.700 |ddv_scf|^2 =  9.604E-05

      iter #   8 total cpu time :  3683.9 secs   av.it.:  10.9
      thresh= 9.800E-04 alpha_mix =  0.700 |ddv_scf|^2 =  1.272E-05

      iter #   9 total cpu time :  3714.2 secs   av.it.:  11.8
      thresh= 3.567E-04 alpha_mix =  0.700 |ddv_scf|^2 =  2.937E-04

      iter #  10 total cpu time :  3728.1 secs   av.it.:   4.2
      thresh= 1.714E-03 alpha_mix =  0.700 |ddv_scf|^2 =  1.734E-07

      iter #  11 total cpu time :  3759.7 secs   av.it.:  11.6
      thresh= 4.164E-05 alpha_mix =  0.700 |ddv_scf|^2 =  8.970E-08

      iter #  12 total cpu time :  3788.9 secs   av.it.:  11.3
      thresh= 2.995E-05 alpha_mix =  0.700 |ddv_scf|^2 =  1.412E-09

     End of self-consistent calculation

     Convergence has been achieved 


     Representation #  11 mode #  11

     Self-consistent Calculation

      iter #   1 total cpu time :  3807.0 secs   av.it.:   5.2
      thresh= 1.000E-02 alpha_mix =  0.700 |ddv_scf|^2 =  3.714E-02

      iter #   2 total cpu time :  3851.9 secs   av.it.:  12.7
      thresh= 1.000E-02 alpha_mix =  0.700 |ddv_scf|^2 =  1.149E+03

      iter #   3 total cpu time :  3897.4 secs   av.it.:  12.8
      thresh= 1.000E-02 alpha_mix =  0.700 |ddv_scf|^2 =  3.534E-01

      iter #   4 total cpu time :  3920.5 secs   av.it.:   8.3
      thresh= 1.000E-02 alpha_mix =  0.700 |ddv_scf|^2 =  4.917E-05

      iter #   5 total cpu time :  3958.1 secs   av.it.:  13.3
      thresh= 7.012E-04 alpha_mix =  0.700 |ddv_scf|^2 =  8.255E-04

      iter #   6 total cpu time :  3994.4 secs   av.it.:   7.8
      thresh= 2.873E-03 alpha_mix =  0.700 |ddv_scf|^2 =  6.289E-02

      iter #   7 total cpu time :  4019.4 secs   av.it.:   7.9
      thresh= 1.000E-02 alpha_mix =  0.700 |ddv_scf|^2 =  1.991E-05

      iter #   8 total cpu time :  4050.3 secs   av.it.:  11.3
      thresh= 4.462E-04 alpha_mix =  0.700 |ddv_scf|^2 =  3.963E-06

      iter #   9 total cpu time :  4085.9 secs   av.it.:  11.7
      thresh= 1.991E-04 alpha_mix =  0.700 |ddv_scf|^2 =  2.123E-05

      iter #  10 total cpu time :  4103.9 secs   av.it.:   6.2
      thresh= 4.607E-04 alpha_mix =  0.700 |ddv_scf|^2 =  3.754E-08

      iter #  11 total cpu time :  4138.8 secs   av.it.:  11.3
      thresh= 1.937E-05 alpha_mix =  0.700 |ddv_scf|^2 =  3.092E-08

      iter #  12 total cpu time :  4166.2 secs   av.it.:  10.4
      thresh= 1.759E-05 alpha_mix =  0.700 |ddv_scf|^2 =  2.396E-10

     End of self-consistent calculation

     Convergence has been achieved 


     Representation #  12 mode #  12

     Self-consistent Calculation

      iter #   1 total cpu time :  4188.5 secs   av.it.:   6.2
      thresh= 1.000E-02 alpha_mix =  0.700 |ddv_scf|^2 =  9.867E-02

      iter #   2 total cpu time :  4223.7 secs   av.it.:  13.6
      thresh= 1.000E-02 alpha_mix =  0.700 |ddv_scf|^2 =  3.051E+03

      iter #   3 total cpu time :  4262.0 secs   av.it.:  13.6
      thresh= 1.000E-02 alpha_mix =  0.700 |ddv_scf|^2 =  9.453E-01

      iter #   4 total cpu time :  4287.2 secs   av.it.:   9.1
      thresh= 1.000E-02 alpha_mix =  0.700 |ddv_scf|^2 =  2.477E-04

      iter #   5 total cpu time :  4319.5 secs   av.it.:  12.8
      thresh= 1.574E-03 alpha_mix =  0.700 |ddv_scf|^2 =  2.372E-04

      iter #   6 total cpu time :  4349.2 secs   av.it.:  11.7
      thresh= 1.540E-03 alpha_mix =  0.700 |ddv_scf|^2 =  2.695E-02

      iter #   7 total cpu time :  4365.9 secs   av.it.:   3.8
      thresh= 1.000E-02 alpha_mix =  0.700 |ddv_scf|^2 =  7.742E-06

      iter #   8 total cpu time :  4398.5 secs   av.it.:  12.7
      thresh= 2.782E-04 alpha_mix =  0.700 |ddv_scf|^2 =  3.638E-06

      iter #   9 total cpu time :  4455.3 secs   av.it.:  12.0
      thresh= 1.907E-04 alpha_mix =  0.700 |ddv_scf|^2 =  4.544E-06

      iter #  10 total cpu time :  4472.5 secs   av.it.:   4.9
      thresh= 2.132E-04 alpha_mix =  0.700 |ddv_scf|^2 =  1.292E-08

      iter #  11 total cpu time :  4502.0 secs   av.it.:  10.4
      thresh= 1.137E-05 alpha_mix =  0.700 |ddv_scf|^2 =  5.491E-10

     End of self-consistent calculation

     Convergence has been achieved 


     Representation #  13 mode #  13

     Self-consistent Calculation

      iter #   1 total cpu time :  4518.9 secs   av.it.:   5.2
      thresh= 1.000E-02 alpha_mix =  0.700 |ddv_scf|^2 =  3.714E-02

      iter #   2 total cpu time :  4558.3 secs   av.it.:  12.7
      thresh= 1.000E-02 alpha_mix =  0.700 |ddv_scf|^2 =  1.149E+03

      iter #   3 total cpu time :  4589.9 secs   av.it.:  12.8
      thresh= 1.000E-02 alpha_mix =  0.700 |ddv_scf|^2 =  3.534E-01

      iter #   4 total cpu time :  4613.4 secs   av.it.:   8.3
      thresh= 1.000E-02 alpha_mix =  0.700 |ddv_scf|^2 =  4.921E-05

      iter #   5 total cpu time :  4646.6 secs   av.it.:  13.4
      thresh= 7.015E-04 alpha_mix =  0.700 |ddv_scf|^2 =  1.235E-03

      iter #   6 total cpu time :  4681.5 secs   av.it.:   6.9
      thresh= 3.515E-03 alpha_mix =  0.700 |ddv_scf|^2 =  4.383E-02

      iter #   7 total cpu time :  4703.8 secs   av.it.:   8.0
      thresh= 1.000E-02 alpha_mix =  0.700 |ddv_scf|^2 =  1.446E-05

      iter #   8 total cpu time :  4734.7 secs   av.it.:  11.5
      thresh= 3.803E-04 alpha_mix =  0.700 |ddv_scf|^2 =  3.902E-06

      iter #   9 total cpu time :  4765.7 secs   av.it.:  11.7
      thresh= 1.975E-04 alpha_mix =  0.700 |ddv_scf|^2 =  1.614E-05

      iter #  10 total cpu time :  4783.6 secs   av.it.:   6.2
      thresh= 4.017E-04 alpha_mix =  0.700 |ddv_scf|^2 =  3.431E-08

      iter #  11 total cpu time :  4821.3 secs   av.it.:  11.1
      thresh= 1.852E-05 alpha_mix =  0.700 |ddv_scf|^2 =  2.441E-08

      iter #  12 total cpu time :  4850.8 secs   av.it.:  10.1
      thresh= 1.562E-05 alpha_mix =  0.700 |ddv_scf|^2 =  2.107E-10

     End of self-consistent calculation

     Convergence has been achieved 


     Representation #  14 mode #  14

     Self-consistent Calculation

      iter #   1 total cpu time :  4871.5 secs   av.it.:   6.6
      thresh= 1.000E-02 alpha_mix =  0.700 |ddv_scf|^2 =  3.275E-01

      iter #   2 total cpu time :  4911.0 secs   av.it.:  14.6
      thresh= 1.000E-02 alpha_mix =  0.700 |ddv_scf|^2 =  1.013E+04

      iter #   3 total cpu time :  4947.4 secs   av.it.:  14.6
      thresh= 1.000E-02 alpha_mix =  0.700 |ddv_scf|^2 =  3.140E+00

      iter #   4 total cpu time :  4974.2 secs   av.it.:   9.8
      thresh= 1.000E-02 alpha_mix =  0.700 |ddv_scf|^2 =  8.098E-04

      iter #   5 total cpu time :  5009.1 secs   av.it.:  12.4
      thresh= 2.846E-03 alpha_mix =  0.700 |ddv_scf|^2 =  9.974E-04

      iter #   6 total cpu time :  5038.9 secs   av.it.:  11.5
      thresh= 3.158E-03 alpha_mix =  0.700 |ddv_scf|^2 =  4.303E-01

      iter #   7 total cpu time :  5060.6 secs   av.it.:   7.3
      thresh= 1.000E-02 alpha_mix =  0.700 |ddv_scf|^2 =  1.513E-04

      iter #   8 total cpu time :  5092.3 secs   av.it.:  10.9
      thresh= 1.230E-03 alpha_mix =  0.700 |ddv_scf|^2 =  1.273E-05

      iter #   9 total cpu time :  5122.9 secs   av.it.:  12.0
      thresh= 3.567E-04 alpha_mix =  0.700 |ddv_scf|^2 =  1.688E-05

      iter #  10 total cpu time :  5146.7 secs   av.it.:   6.3
      thresh= 4.109E-04 alpha_mix =  0.700 |ddv_scf|^2 =  5.912E-07

      iter #  11 total cpu time :  5176.7 secs   av.it.:  10.0
      thresh= 7.689E-05 alpha_mix =  0.700 |ddv_scf|^2 =  3.305E-08

      iter #  12 total cpu time :  5206.5 secs   av.it.:  11.5
      thresh= 1.818E-05 alpha_mix =  0.700 |ddv_scf|^2 =  1.139E-10

     End of self-consistent calculation

     Convergence has been achieved 


     Representation #  15 mode #  15

     Self-consistent Calculation

      iter #   1 total cpu time :  5226.8 secs   av.it.:   5.1
      thresh= 1.000E-02 alpha_mix =  0.700 |ddv_scf|^2 =  3.674E-02

      iter #   2 total cpu time :  5261.5 secs   av.it.:  12.7
      thresh= 1.000E-02 alpha_mix =  0.700 |ddv_scf|^2 =  1.136E+03

      iter #   3 total cpu time :  5294.7 secs   av.it.:  12.8
      thresh= 1.000E-02 alpha_mix =  0.700 |ddv_scf|^2 =  3.524E-01

      iter #   4 total cpu time :  5325.9 secs   av.it.:   8.4
      thresh= 1.000E-02 alpha_mix =  0.700 |ddv_scf|^2 =  1.181E-04

      iter #   5 total cpu time :  5360.2 secs   av.it.:  12.5
      thresh= 1.087E-03 alpha_mix =  0.700 |ddv_scf|^2 =  3.037E-04

      iter #   6 total cpu time :  5389.1 secs   av.it.:   9.8
      thresh= 1.743E-03 alpha_mix =  0.700 |ddv_scf|^2 =  1.218E-01

      iter #   7 total cpu time :  5411.6 secs   av.it.:   7.7
      thresh= 1.000E-02 alpha_mix =  0.700 |ddv_scf|^2 =  3.680E-05

      iter #   8 total cpu time :  5439.7 secs   av.it.:  10.9
      thresh= 6.066E-04 alpha_mix =  0.700 |ddv_scf|^2 =  3.181E-06

      iter #   9 total cpu time :  5470.5 secs   av.it.:  12.0
      thresh= 1.784E-04 alpha_mix =  0.700 |ddv_scf|^2 =  1.207E-05

      iter #  10 total cpu time :  5491.1 secs   av.it.:   6.0
      thresh= 3.474E-04 alpha_mix =  0.700 |ddv_scf|^2 =  7.122E-08

      iter #  11 total cpu time :  5525.1 secs   av.it.:  11.2
      thresh= 2.669E-05 alpha_mix =  0.700 |ddv_scf|^2 =  3.061E-08

      iter #  12 total cpu time :  5553.0 secs   av.it.:  10.8
      thresh= 1.750E-05 alpha_mix =  0.700 |ddv_scf|^2 =  3.265E-11

     End of self-consistent calculation

     Convergence has been achieved 


     Representation #  16 mode #  16

     Self-consistent Calculation

      iter #   1 total cpu time :  5569.7 secs   av.it.:   5.3
      thresh= 1.000E-02 alpha_mix =  0.700 |ddv_scf|^2 =  3.698E-02

      iter #   2 total cpu time :  5606.3 secs   av.it.:  12.7
      thresh= 1.000E-02 alpha_mix =  0.700 |ddv_scf|^2 =  1.143E+03

      iter #   3 total cpu time :  5643.8 secs   av.it.:  12.8
      thresh= 1.000E-02 alpha_mix =  0.700 |ddv_scf|^2 =  3.525E-01

      iter #   4 total cpu time :  5668.0 secs   av.it.:   8.3
      thresh= 1.000E-02 alpha_mix =  0.700 |ddv_scf|^2 =  5.063E-05

      iter #   5 total cpu time :  5705.8 secs   av.it.:  13.4
      thresh= 7.115E-04 alpha_mix =  0.700 |ddv_scf|^2 =  2.148E-03

      iter #   6 total cpu time :  5737.1 secs   av.it.:   5.7
      thresh= 4.635E-03 alpha_mix =  0.700 |ddv_scf|^2 =  2.520E-02

      iter #   7 total cpu time :  5764.7 secs   av.it.:   8.0
      thresh= 1.000E-02 alpha_mix =  0.700 |ddv_scf|^2 =  7.434E-06

      iter #   8 total cpu time :  5797.6 secs   av.it.:  12.0
      thresh= 2.727E-04 alpha_mix =  0.700 |ddv_scf|^2 =  3.693E-06

      iter #   9 total cpu time :  5832.8 secs   av.it.:  11.5
      thresh= 1.922E-04 alpha_mix =  0.700 |ddv_scf|^2 =  1.976E-05

      iter #  10 total cpu time :  5852.2 secs   av.it.:   5.6
      thresh= 4.446E-04 alpha_mix =  0.700 |ddv_scf|^2 =  2.398E-08

      iter #  11 total cpu time :  5881.0 secs   av.it.:  10.9
      thresh= 1.548E-05 alpha_mix =  0.700 |ddv_scf|^2 =  1.889E-08

      iter #  12 total cpu time :  5909.5 secs   av.it.:   9.8
      thresh= 1.374E-05 alpha_mix =  0.700 |ddv_scf|^2 =  2.061E-10

     End of self-consistent calculation

     Convergence has been achieved 


     Representation #  17 mode #  17

     Self-consistent Calculation

      iter #   1 total cpu time :  5927.7 secs   av.it.:   4.9
      thresh= 1.000E-02 alpha_mix =  0.700 |ddv_scf|^2 =  2.518E-03

      iter #   2 total cpu time :  5965.2 secs   av.it.:  11.6
      thresh= 5.018E-03 alpha_mix =  0.700 |ddv_scf|^2 =  7.785E+01

      iter #   3 total cpu time :  6003.2 secs   av.it.:  10.6
      thresh= 1.000E-02 alpha_mix =  0.700 |ddv_scf|^2 =  2.421E-02

      iter #   4 total cpu time :  6023.9 secs   av.it.:   6.3
      thresh= 1.000E-02 alpha_mix =  0.700 |ddv_scf|^2 =  8.146E-06

      iter #   5 total cpu time :  6070.8 secs   av.it.:  12.8
      thresh= 2.854E-04 alpha_mix =  0.700 |ddv_scf|^2 =  1.300E-03

      iter #   6 total cpu time :  6084.6 secs   av.it.:   3.6
      thresh= 3.606E-03 alpha_mix =  0.700 |ddv_scf|^2 =  2.512E-04

      iter #   7 total cpu time :  6107.7 secs   av.it.:   8.8
      thresh= 1.585E-03 alpha_mix =  0.700 |ddv_scf|^2 =  5.929E-07

      iter #   8 total cpu time :  6140.1 secs   av.it.:  11.8
      thresh= 7.700E-05 alpha_mix =  0.700 |ddv_scf|^2 =  9.873E-08

      iter #   9 total cpu time :  6183.0 secs   av.it.:  12.3
      thresh= 3.142E-05 alpha_mix =  0.700 |ddv_scf|^2 =  2.066E-06

      iter #  10 total cpu time :  6200.3 secs   av.it.:   5.3
      thresh= 1.438E-04 alpha_mix =  0.700 |ddv_scf|^2 =  2.172E-09

     End of self-consistent calculation

     Convergence has been achieved 


     Representation #  18 mode #  18

     Self-consistent Calculation

      iter #   1 total cpu time :  6225.0 secs   av.it.:   4.5
      thresh= 1.000E-02 alpha_mix =  0.700 |ddv_scf|^2 =  1.247E-04

      iter #   2 total cpu time :  6256.4 secs   av.it.:  11.8
      thresh= 1.116E-03 alpha_mix =  0.700 |ddv_scf|^2 =  3.854E+00

      iter #   3 total cpu time :  6279.3 secs   av.it.:   8.0
      thresh= 1.000E-02 alpha_mix =  0.700 |ddv_scf|^2 =  1.175E-03

      iter #   4 total cpu time :  6298.3 secs   av.it.:   6.4
      thresh= 3.428E-03 alpha_mix =  0.700 |ddv_scf|^2 =  1.250E-07

      iter #   5 total cpu time :  6332.5 secs   av.it.:  13.8
      thresh= 3.535E-05 alpha_mix =  0.700 |ddv_scf|^2 =  1.488E-05

      iter #   6 total cpu time :  6350.5 secs   av.it.:   4.5
      thresh= 3.857E-04 alpha_mix =  0.700 |ddv_scf|^2 =  4.230E-05

      iter #   7 total cpu time :  6385.9 secs   av.it.:   7.8
      thresh= 6.504E-04 alpha_mix =  0.700 |ddv_scf|^2 =  7.149E-08

      iter #   8 total cpu time :  6414.8 secs   av.it.:  11.3
      thresh= 2.674E-05 alpha_mix =  0.700 |ddv_scf|^2 =  9.487E-09

     End of self-consistent calculation

     Convergence has been achieved 


     Representation #  19 mode #  19

     Self-consistent Calculation

      iter #   1 total cpu time :  6433.1 secs   av.it.:   3.8
      thresh= 1.000E-02 alpha_mix =  0.700 |ddv_scf|^2 =  7.989E-10

     End of self-consistent calculation

     Convergence has been achieved 


     Representation #  20 mode #  20

     Self-consistent Calculation

      iter #   1 total cpu time :  6446.7 secs   av.it.:   3.6
      thresh= 1.000E-02 alpha_mix =  0.700 |ddv_scf|^2 =  7.210E-10

     End of self-consistent calculation

     Convergence has been achieved 


     Representation #  21 mode #  21

     Self-consistent Calculation

      iter #   1 total cpu time :  6463.3 secs   av.it.:   3.8
      thresh= 1.000E-02 alpha_mix =  0.700 |ddv_scf|^2 =  7.989E-10

     End of self-consistent calculation

     Convergence has been achieved 


     Representation #  22 mode #  22

     Self-consistent Calculation

      iter #   1 total cpu time :  6492.1 secs   av.it.:   3.6
      thresh= 1.000E-02 alpha_mix =  0.700 |ddv_scf|^2 =  7.210E-10

     End of self-consistent calculation

     Convergence has been achieved 


     Representation #  23 modes #  23  24

     Self-consistent Calculation

      iter #   1 total cpu time :  6523.2 secs   av.it.:   4.1
      thresh= 1.000E-02 alpha_mix =  0.700 |ddv_scf|^2 =  3.416E-09

     End of self-consistent calculation

     Convergence has been achieved 


     Representation #  24 modes #  25  26

     Self-consistent Calculation

      iter #   1 total cpu time :  6559.1 secs   av.it.:   4.2
      thresh= 1.000E-02 alpha_mix =  0.700 |ddv_scf|^2 =  3.819E-09

     End of self-consistent calculation

     Convergence has been achieved 


     Representation #  25 modes #  27  28

     Self-consistent Calculation

      iter #   1 total cpu time :  6593.5 secs   av.it.:   4.1
      thresh= 1.000E-02 alpha_mix =  0.700 |ddv_scf|^2 =  1.676E-09

     End of self-consistent calculation

     Convergence has been achieved 


     Representation #  26 modes #  29  30

     Self-consistent Calculation

      iter #   1 total cpu time :  6650.4 secs   av.it.:   4.3
      thresh= 1.000E-02 alpha_mix =  0.700 |ddv_scf|^2 =  4.195E-09

     End of self-consistent calculation

     Convergence has been achieved 


     Representation #  27 modes #  31  32

     Self-consistent Calculation

      iter #   1 total cpu time :  6685.7 secs   av.it.:   4.5
      thresh= 1.000E-02 alpha_mix =  0.700 |ddv_scf|^2 =  5.100E-09

     End of self-consistent calculation

     Convergence has been achieved 


     Representation #  28 modes #  33  34

     Self-consistent Calculation

      iter #   1 total cpu time :  6730.0 secs   av.it.:   4.1
      thresh= 1.000E-02 alpha_mix =  0.700 |ddv_scf|^2 =  1.626E-09

     End of self-consistent calculation

     Convergence has been achieved 


     Representation #  29 modes #  35  36

     Self-consistent Calculation

      iter #   1 total cpu time :  6766.7 secs   av.it.:   4.4
      thresh= 1.000E-02 alpha_mix =  0.700 |ddv_scf|^2 =  4.546E-09

     End of self-consistent calculation

     Convergence has been achieved 


     Representation #  30 modes #  37  38

     Self-consistent Calculation

      iter #   1 total cpu time :  6804.8 secs   av.it.:   4.0
      thresh= 1.000E-02 alpha_mix =  0.700 |ddv_scf|^2 =  3.463E-09

     End of self-consistent calculation

     Convergence has been achieved 


     Representation #  31 modes #  39  40

     Self-consistent Calculation

      iter #   1 total cpu time :  6846.9 secs   av.it.:   4.3
      thresh= 1.000E-02 alpha_mix =  0.700 |ddv_scf|^2 =  4.195E-09

     End of self-consistent calculation

     Convergence has been achieved 


     Representation #  32 modes #  41  42

     Self-consistent Calculation

      iter #   1 total cpu time :  6908.6 secs   av.it.:   4.5
      thresh= 1.000E-02 alpha_mix =  0.700 |ddv_scf|^2 =  2.552E-09

     End of self-consistent calculation

     Convergence has been achieved 


     Representation #  33 modes #  43  44

     Self-consistent Calculation

      iter #   1 total cpu time :  6952.7 secs   av.it.:   4.1
      thresh= 1.000E-02 alpha_mix =  0.700 |ddv_scf|^2 =  1.665E-09

     End of self-consistent calculation

     Convergence has been achieved 


     Representation #  34 modes #  45  46

     Self-consistent Calculation

      iter #   1 total cpu time :  6987.4 secs   av.it.:   4.0
      thresh= 1.000E-02 alpha_mix =  0.700 |ddv_scf|^2 =  3.463E-09

     End of self-consistent calculation

     Convergence has been achieved 


     Representation #  35 modes #  47  48

     Self-consistent Calculation

      iter #   1 total cpu time :  7023.7 secs   av.it.:   4.1
      thresh= 1.000E-02 alpha_mix =  0.700 |ddv_scf|^2 =  1.845E-09

     End of self-consistent calculation

     Convergence has been achieved 


     Representation #  36 modes #  49  50

     Self-consistent Calculation

      iter #   1 total cpu time :  7081.1 secs   av.it.:   4.1
      thresh= 1.000E-02 alpha_mix =  0.700 |ddv_scf|^2 =  3.416E-09

     End of self-consistent calculation

     Convergence has been achieved 


     Representation #  37 modes #  51  52

     Self-consistent Calculation

      iter #   1 total cpu time :  7132.8 secs   av.it.:   4.1
      thresh= 1.000E-02 alpha_mix =  0.700 |ddv_scf|^2 =  1.799E-09

     End of self-consistent calculation

     Convergence has been achieved 


     Representation #  38 modes #  53  54

     Self-consistent Calculation

      iter #   1 total cpu time :  7171.0 secs   av.it.:   4.1
      thresh= 1.000E-02 alpha_mix =  0.700 |ddv_scf|^2 =  1.800E-09

     End of self-consistent calculation

     Convergence has been achieved 


     Representation #  39 modes #  55  56

     Self-consistent Calculation

      iter #   1 total cpu time :  7209.5 secs   av.it.:   4.1
      thresh= 1.000E-02 alpha_mix =  0.700 |ddv_scf|^2 =  3.956E-09

     End of self-consistent calculation

     Convergence has been achieved 


     Representation #  40 modes #  57  58

     Self-consistent Calculation

      iter #   1 total cpu time :  7267.5 secs   av.it.:   7.7
      thresh= 1.000E-02 alpha_mix =  0.700 |ddv_scf|^2 =  1.652E-07

      iter #   2 total cpu time :  7351.3 secs   av.it.:  16.0
      thresh= 4.064E-05 alpha_mix =  0.700 |ddv_scf|^2 =  3.416E-08

      iter #   3 total cpu time :  7433.4 secs   av.it.:  15.7
      thresh= 1.848E-05 alpha_mix =  0.700 |ddv_scf|^2 =  2.345E-11

     End of self-consistent calculation

     Convergence has been achieved 


     Representation #  41 modes #  59  60

     Self-consistent Calculation

      iter #   1 total cpu time :  7468.0 secs   av.it.:   4.2
      thresh= 1.000E-02 alpha_mix =  0.700 |ddv_scf|^2 =  3.819E-09

     End of self-consistent calculation

     Convergence has been achieved 


     Representation #  42 modes #  61  62

     Self-consistent Calculation

      iter #   1 total cpu time :  7503.3 secs   av.it.:   4.2
      thresh= 1.000E-02 alpha_mix =  0.700 |ddv_scf|^2 =  3.874E-09

     End of self-consistent calculation

     Convergence has been achieved 


     Representation #  43 modes #  63  64

     Self-consistent Calculation

      iter #   1 total cpu time :  7539.5 secs   av.it.:   4.1
      thresh= 1.000E-02 alpha_mix =  0.700 |ddv_scf|^2 =  2.107E-09

     End of self-consistent calculation

     Convergence has been achieved 


     Representation #  44 modes #  65  66

     Self-consistent Calculation

      iter #   1 total cpu time :  7577.9 secs   av.it.:   4.0
      thresh= 1.000E-02 alpha_mix =  0.700 |ddv_scf|^2 =  1.515E-09

     End of self-consistent calculation

     Convergence has been achieved 
 
     Number of q in the star =    2
     List of q in the star:
          1   0.000000000   0.000000000   0.132839399
          2   0.000000000   0.000000000  -0.132839399

     Diagonalizing the dynamical matrix

     q = (    0.000000000   0.000000000   0.132839399 ) 

 **************************************************************************
     freq (    1) =    -109.502880 [THz] =   -3652.622917 [cm-1]
     freq (    2) =    -109.502880 [THz] =   -3652.622917 [cm-1]
     freq (    3) =     -96.429714 [THz] =   -3216.549035 [cm-1]
     freq (    4) =     -96.429714 [THz] =   -3216.549035 [cm-1]
     freq (    5) =     -89.012123 [THz] =   -2969.124838 [cm-1]
     freq (    6) =     -89.012123 [THz] =   -2969.124838 [cm-1]
     freq (    7) =     -85.850224 [THz] =   -2863.655221 [cm-1]
     freq (    8) =     -85.850224 [THz] =   -2863.655221 [cm-1]
     freq (    9) =     -81.494375 [THz] =   -2718.359761 [cm-1]
     freq (   10) =     -81.494375 [THz] =   -2718.359761 [cm-1]
     freq (   11) =     -61.440645 [THz] =   -2049.439310 [cm-1]
     freq (   12) =     -61.440645 [THz] =   -2049.439310 [cm-1]
     freq (   13) =     -52.735173 [THz] =   -1759.056011 [cm-1]
     freq (   14) =     -52.735173 [THz] =   -1759.056011 [cm-1]
     freq (   15) =     -49.828374 [THz] =   -1662.095651 [cm-1]
     freq (   16) =     -49.828374 [THz] =   -1662.095651 [cm-1]
     freq (   17) =     -41.277677 [THz] =   -1376.875082 [cm-1]
     freq (   18) =     -41.277677 [THz] =   -1376.875082 [cm-1]
     freq (   19) =     -41.201709 [THz] =   -1374.341063 [cm-1]
     freq (   20) =     -40.523461 [THz] =   -1351.717151 [cm-1]
     freq (   21) =     -40.523461 [THz] =   -1351.717151 [cm-1]
     freq (   22) =     -39.608116 [THz] =   -1321.184553 [cm-1]
     freq (   23) =     -27.040649 [THz] =    -901.978960 [cm-1]
     freq (   24) =     -27.040649 [THz] =    -901.978960 [cm-1]
     freq (   25) =     -21.563194 [THz] =    -719.270718 [cm-1]
     freq (   26) =     -21.563194 [THz] =    -719.270718 [cm-1]
     freq (   27) =       2.665993 [THz] =      88.927966 [cm-1]
     freq (   28) =       2.665993 [THz] =      88.927966 [cm-1]
     freq (   29) =       4.416683 [THz] =     147.324696 [cm-1]
     freq (   30) =       5.663492 [THz] =     188.913755 [cm-1]
     freq (   31) =      13.075524 [THz] =     436.152523 [cm-1]
     freq (   32) =      13.416614 [THz] =     447.530069 [cm-1]
     freq (   33) =      13.416614 [THz] =     447.530069 [cm-1]
     freq (   34) =      16.362049 [THz] =     545.779203 [cm-1]
     freq (   35) =      16.362049 [THz] =     545.779203 [cm-1]
     freq (   36) =      20.245862 [THz] =     675.329256 [cm-1]
     freq (   37) =      20.930862 [THz] =     698.178407 [cm-1]
     freq (   38) =      20.930862 [THz] =     698.178407 [cm-1]
     freq (   39) =      23.389518 [THz] =     780.190335 [cm-1]
     freq (   40) =      25.227153 [THz] =     841.487248 [cm-1]
     freq (   41) =      25.227153 [THz] =     841.487248 [cm-1]
     freq (   42) =      26.832762 [THz] =     895.044611 [cm-1]
     freq (   43) =      28.141121 [THz] =     938.686766 [cm-1]
     freq (   44) =      30.245482 [THz] =    1008.880679 [cm-1]
     freq (   45) =      30.495838 [THz] =    1017.231648 [cm-1]
     freq (   46) =      30.495838 [THz] =    1017.231648 [cm-1]
     freq (   47) =      31.724064 [THz] =    1058.200883 [cm-1]
     freq (   48) =      31.724064 [THz] =    1058.200883 [cm-1]
     freq (   49) =      32.263187 [THz] =    1076.184080 [cm-1]
     freq (   50) =      32.263187 [THz] =    1076.184080 [cm-1]
     freq (   51) =      32.691865 [THz] =    1090.483223 [cm-1]
     freq (   52) =      32.836501 [THz] =    1095.307777 [cm-1]
     freq (   53) =      35.093479 [THz] =    1170.592471 [cm-1]
     freq (   54) =      36.285163 [THz] =    1210.342753 [cm-1]
     freq (   55) =      36.285163 [THz] =    1210.342753 [cm-1]
     freq (   56) =      37.429929 [THz] =    1248.528030 [cm-1]
     freq (   57) =      37.429929 [THz] =    1248.528030 [cm-1]
     freq (   58) =      39.865340 [THz] =    1329.764613 [cm-1]
     freq (   59) =      43.234928 [THz] =    1442.161970 [cm-1]
     freq (   60) =      46.409819 [THz] =    1548.064913 [cm-1]
     freq (   61) =      52.978833 [THz] =    1767.183653 [cm-1]
     freq (   62) =      54.339261 [THz] =    1812.562659 [cm-1]
     freq (   63) =      57.682919 [THz] =    1924.095078 [cm-1]
     freq (   64) =      58.935816 [THz] =    1965.887208 [cm-1]
     freq (   65) =      61.573944 [THz] =    2053.885697 [cm-1]
     freq (   66) =      70.767850 [THz] =    2360.561376 [cm-1]
 **************************************************************************

     Mode symmetry, C_3v (3m)   point group:

     freq (   1-   2) =      -3652.6  [cm-1]   --> E    L_3           
     freq (   3-   4) =      -3216.5  [cm-1]   --> E    L_3           
     freq (   5-   6) =      -2969.1  [cm-1]   --> E    L_3           
     freq (   7-   8) =      -2863.7  [cm-1]   --> E    L_3           
     freq (   9-  10) =      -2718.4  [cm-1]   --> E    L_3           
     freq (  11-  12) =      -2049.4  [cm-1]   --> E    L_3           
     freq (  13-  14) =      -1759.1  [cm-1]   --> E    L_3           
     freq (  15-  16) =      -1662.1  [cm-1]   --> E    L_3           
     freq (  17-  18) =      -1376.9  [cm-1]   --> E    L_3           
     freq (  19-  19) =      -1374.3  [cm-1]   --> A_2  L_2           
     freq (  20-  21) =      -1351.7  [cm-1]   --> E    L_3           
     freq (  22-  22) =      -1321.2  [cm-1]   --> A_2  L_2           
     freq (  23-  24) =       -902.0  [cm-1]   --> E    L_3           
     freq (  25-  26) =       -719.3  [cm-1]   --> E    L_3           
     freq (  27-  28) =         88.9  [cm-1]   --> E    L_3           
     freq (  29-  29) =        147.3  [cm-1]   --> A_1  L_1           
     freq (  30-  30) =        188.9  [cm-1]   --> A_1  L_1           
     freq (  31-  31) =        436.2  [cm-1]   --> A_1  L_1           
     freq (  32-  33) =        447.5  [cm-1]   --> E    L_3           
     freq (  34-  35) =        545.8  [cm-1]   --> E    L_3           
     freq (  36-  36) =        675.3  [cm-1]   --> A_1  L_1           
     freq (  37-  38) =        698.2  [cm-1]   --> E    L_3           
     freq (  39-  39) =        780.2  [cm-1]   --> A_1  L_1           
     freq (  40-  41) =        841.5  [cm-1]   --> E    L_3           
     freq (  42-  42) =        895.0  [cm-1]   --> A_1  L_1           
     freq (  43-  43) =        938.7  [cm-1]   --> A_2  L_2           
     freq (  44-  44) =       1008.9  [cm-1]   --> A_1  L_1           
     freq (  45-  46) =       1017.2  [cm-1]   --> E    L_3           
     freq (  47-  48) =       1058.2  [cm-1]   --> E    L_3           
     freq (  49-  50) =       1076.2  [cm-1]   --> E    L_3           
     freq (  51-  51) =       1090.5  [cm-1]   --> A_2  L_2           
     freq (  52-  52) =       1095.3  [cm-1]   --> A_1  L_1           
     freq (  53-  53) =       1170.6  [cm-1]   --> A_1  L_1           
     freq (  54-  55) =       1210.3  [cm-1]   --> E    L_3           
     freq (  56-  57) =       1248.5  [cm-1]   --> E    L_3           
     freq (  58-  58) =       1329.8  [cm-1]   --> A_1  L_1           
     freq (  59-  59) =       1442.2  [cm-1]   --> A_1  L_1           
     freq (  60-  60) =       1548.1  [cm-1]   --> A_1  L_1           
     freq (  61-  61) =       1767.2  [cm-1]   --> A_1  L_1           
     freq (  62-  62) =       1812.6  [cm-1]   --> A_1  L_1           
     freq (  63-  63) =       1924.1  [cm-1]   --> A_1  L_1           
     freq (  64-  64) =       1965.9  [cm-1]   --> A_1  L_1           
     freq (  65-  65) =       2053.9  [cm-1]   --> A_1  L_1           
     freq (  66-  66) =       2360.6  [cm-1]   --> A_1  L_1           

     Calculation of q =   -0.4264718  -0.2462236   0.2213990
     [opt_tetra]  Optimized tetrahedron method is used.
 
     Parallelization info
     --------------------
     sticks:   dense  smooth     PW     G-vecs:    dense   smooth      PW
     Min          72      72     23                 1527     1527     285
     Max          73      73     24                 1530     1530     288
     Sum        1751    1751    573                36689    36689    6879
 
     Using Slab Decomposition
 

     Title: 
     Electron-phonon coefficients for LaYH20                                    


     bravais-lattice index     =            5
     lattice parameter (alat)  =      11.0632  a.u.
     unit-cell volume          =     379.1881 (a.u.)^3
     number of atoms/cell      =           22
     number of atomic types    =            3
     number of electrons       =        34.00
     number of Kohn-Sham states=           21
     kinetic-energy cutoff     =      80.0000  Ry
     charge density cutoff     =     320.0000  Ry
     Exchange-correlation= PZ
                           (   1   1   0   0   0   0   0)

     celldm(1)=  11.063193  celldm(2)=   0.000000  celldm(3)=   0.000000
     celldm(4)=   0.828182  celldm(5)=   0.000000  celldm(6)=   0.000000

     crystal axes: (cart. coord. in units of alat)
               a(1) = (   0.293103  -0.169223   0.940986 )  
               a(2) = (   0.000000   0.338446   0.940986 )  
               a(3) = (  -0.293103  -0.169223   0.940986 )  

     reciprocal axes: (cart. coord. in units 2 pi/alat)
               b(1) = (  1.705887 -0.984894  0.354238 )  
               b(2) = (  0.000000  1.969789  0.354238 )  
               b(3) = ( -1.705887 -0.984894  0.354238 )  


     PseudoPot. # 1 for La read from file:
     ./La.UPF
     MD5 check sum: 8e5991bce12d7f16f732aa20d6589152
     Pseudo is Norm-conserving, Zval = 11.0
     Generated in analytical, separable form
     Using radial grid of 1253 points,  7 beta functions with: 
                l(1) =   0
                l(2) =   0
                l(3) =   1
                l(4) =   1
                l(5) =   1
                l(6) =   2
                l(7) =   3

     PseudoPot. # 2 for H  read from file:
     ./H.UPF
     MD5 check sum: df8e43189db5a2d7f03d0dd74d71ce72
     Pseudo is Norm-conserving, Zval =  1.0
     Generated in analytical, separable form
     Using radial grid of  929 points,  0 beta functions with: 

     PseudoPot. # 3 for Y  read from file:
     ./Y.UPF
     MD5 check sum: 28b92b02874aa0fef5f1b1d2b706803c
     Pseudo is Norm-conserving, Zval =  3.0
     Generated in analytical, separable form
     Using radial grid of 1223 points,  7 beta functions with: 
                l(1) =   0
                l(2) =   0
                l(3) =   0
                l(4) =   1
                l(5) =   1
                l(6) =   2
                l(7) =   2

     atomic species   valence    mass     pseudopotential
        La            11.00   138.90547     La( 1.00)
        H              1.00     1.00794     H ( 1.00)
        Y              3.00    88.90585     Y ( 1.00)

     12 Sym. Ops., with inversion, found



   Cartesian axes

     site n.     atom                  positions (alat units)
         1           La  tau(   1) = (   0.0000000  -0.0000000   1.4114788  )
         2           Y   tau(   2) = (   0.0000000   0.0000000   0.0000000  )
         3           H   tau(   3) = (  -0.1429213   0.0825157   2.1619650  )
         4           H   tau(   4) = (   0.0000000  -0.1650314   2.1619650  )
         5           H   tau(   5) = (   0.1429213   0.0825157   2.1619650  )
         6           H   tau(   6) = (  -0.1429213  -0.0825157   0.6609927  )
         7           H   tau(   7) = (   0.0000000   0.1650314   0.6609927  )
         8           H   tau(   8) = (   0.1429213  -0.0825157   0.6609927  )
         9           H   tau(   9) = (   0.1519649  -0.0877370   1.7196022  )
        10           H   tau(  10) = (   0.0000000   0.1754740   1.7196022  )
        11           H   tau(  11) = (  -0.1519649  -0.0877370   1.7196022  )
        12           H   tau(  12) = (   0.1519649   0.0877370   1.1033554  )
        13           H   tau(  13) = (   0.0000000  -0.1754740   1.1033554  )
        14           H   tau(  14) = (  -0.1519649   0.0877370   1.1033554  )
        15           H   tau(  15) = (   0.0000000  -0.0000000   2.2801626  )
        16           H   tau(  16) = (   0.0000000  -0.0000000   0.5427951  )
        17           H   tau(  17) = (   0.0000000  -0.0000000   1.9453439  )
        18           H   tau(  18) = (   0.0000000  -0.0000000   0.8776138  )
        19           H   tau(  19) = (   0.0000000  -0.0000000   2.4757085  )
        20           H   tau(  20) = (   0.0000000  -0.0000000   0.3472491  )
        21           H   tau(  21) = (   0.0000000  -0.0000000   1.0612670  )
        22           H   tau(  22) = (   0.0000000  -0.0000000   1.7616907  )

     number of k points=  1872 (tetrahedron method)

     Number of k-points >= 100: set verbosity='high' to print them.

     Dense  grid:    36689 G-vectors     FFT dimensions: (  64,  64,  64)

     Estimated max dynamical RAM per process >      10.29 MB

     Estimated total dynamical RAM >     247.03 MB

     The potential is recalculated from file :
     ./_ph0/LaYH20.q_2/LaYH20.save/charge-density

     Starting wfcs are   20 atomic +    1 random wfcs

     Band Structure Calculation
     Davidson diagonalization with overlap
     c_bands:  1 eigenvalues not converged
     c_bands:  1 eigenvalues not converged
     c_bands:  1 eigenvalues not converged
     c_bands:  1 eigenvalues not converged
     c_bands:  1 eigenvalues not converged
     c_bands:  1 eigenvalues not converged
     c_bands:  1 eigenvalues not converged
     c_bands:  1 eigenvalues not converged
     c_bands:  1 eigenvalues not converged
     c_bands:  1 eigenvalues not converged
     c_bands:  1 eigenvalues not converged
     c_bands:  1 eigenvalues not converged
     c_bands:  1 eigenvalues not converged
     c_bands:  1 eigenvalues not converged
     c_bands:  1 eigenvalues not converged
     c_bands:  1 eigenvalues not converged
     c_bands:  1 eigenvalues not converged
     c_bands:  1 eigenvalues not converged
     c_bands:  1 eigenvalues not converged
     c_bands:  1 eigenvalues not converged
     c_bands:  1 eigenvalues not converged
     c_bands:  1 eigenvalues not converged
     c_bands:  1 eigenvalues not converged
     c_bands:  1 eigenvalues not converged
     c_bands:  1 eigenvalues not converged

     ethr =  2.94E-11,  avg # of iterations = 50.9

     total cpu time spent up to now is      604.5 secs

     End of band structure calculation

     Number of k-points >= 100: set verbosity='high' to print the bands.

     the Fermi energy is    16.9183 ev

     Writing config to output data dir ./_ph0/LaYH20.q_2/LaYH20.save/
 
     [dfpt_tetra]  Dos(E_F)[/Ry] :   0.2137185E+02

     Electron-phonon coefficients for LaYH20                                    

     bravais-lattice index     =            5
     lattice parameter (alat)  =      11.0632  a.u.
     unit-cell volume          =     379.1881 (a.u.)^3
     number of atoms/cell      =           22
     number of atomic types    =            3
     kinetic-energy cut-off    =      80.0000  Ry
     charge density cut-off    =     320.0000  Ry
     convergence threshold     =      1.0E-08
     beta                      =       0.7000
     number of iterations used =            4
     Exchange-correlation= PZ
                           (   1   1   0   0   0   0   0)


     celldm(1)=   11.06319  celldm(2)=    0.00000  celldm(3)=    0.00000
     celldm(4)=    0.82818  celldm(5)=    0.00000  celldm(6)=    0.00000

     crystal axes: (cart. coord. in units of alat)
               a(1) = (  0.2931 -0.1692  0.9410 )  
               a(2) = (  0.0000  0.3384  0.9410 )  
               a(3) = ( -0.2931 -0.1692  0.9410 )  

     reciprocal axes: (cart. coord. in units 2 pi/alat)
               b(1) = (  1.7059 -0.9849  0.3542 )  
               b(2) = (  0.0000  1.9698  0.3542 )  
               b(3) = ( -1.7059 -0.9849  0.3542 )  


     Atoms inside the unit cell: 

     Cartesian axes

     site n.  atom      mass           positions (alat units)
        1     La 138.9055   tau(    1) = (    0.00000   -0.00000    1.41148  )
        2     Y   88.9059   tau(    2) = (    0.00000    0.00000    0.00000  )
        3     H    1.0079   tau(    3) = (   -0.14292    0.08252    2.16197  )
        4     H    1.0079   tau(    4) = (    0.00000   -0.16503    2.16197  )
        5     H    1.0079   tau(    5) = (    0.14292    0.08252    2.16197  )
        6     H    1.0079   tau(    6) = (   -0.14292   -0.08252    0.66099  )
        7     H    1.0079   tau(    7) = (    0.00000    0.16503    0.66099  )
        8     H    1.0079   tau(    8) = (    0.14292   -0.08252    0.66099  )
        9     H    1.0079   tau(    9) = (    0.15196   -0.08774    1.71960  )
       10     H    1.0079   tau(   10) = (    0.00000    0.17547    1.71960  )
       11     H    1.0079   tau(   11) = (   -0.15196   -0.08774    1.71960  )
       12     H    1.0079   tau(   12) = (    0.15196    0.08774    1.10336  )
       13     H    1.0079   tau(   13) = (    0.00000   -0.17547    1.10336  )
       14     H    1.0079   tau(   14) = (   -0.15196    0.08774    1.10336  )
       15     H    1.0079   tau(   15) = (    0.00000   -0.00000    2.28016  )
       16     H    1.0079   tau(   16) = (    0.00000   -0.00000    0.54280  )
       17     H    1.0079   tau(   17) = (    0.00000   -0.00000    1.94534  )
       18     H    1.0079   tau(   18) = (    0.00000   -0.00000    0.87761  )
       19     H    1.0079   tau(   19) = (    0.00000   -0.00000    2.47571  )
       20     H    1.0079   tau(   20) = (    0.00000   -0.00000    0.34725  )
       21     H    1.0079   tau(   21) = (    0.00000   -0.00000    1.06127  )
       22     H    1.0079   tau(   22) = (    0.00000   -0.00000    1.76169  )

     Computing dynamical matrix for 
                    q = (  -0.4264718  -0.2462236   0.2213990 )
 
      2 Sym.Ops. (no q -> -q+G )


     G cutoff =  992.0904  (   1529 G-vectors)     FFT grid: ( 64, 64, 64)
     number of k points=  1872

     PseudoPot. # 1 for La read from file:
     ./La.UPF
     MD5 check sum: 8e5991bce12d7f16f732aa20d6589152
     Pseudo is Norm-conserving, Zval = 11.0
     Generated in analytical, separable form
     Using radial grid of 1253 points,  7 beta functions with: 
                l(1) =   0
                l(2) =   0
                l(3) =   1
                l(4) =   1
                l(5) =   1
                l(6) =   2
                l(7) =   3

     PseudoPot. # 2 for H  read from file:
     ./H.UPF
     MD5 check sum: df8e43189db5a2d7f03d0dd74d71ce72
     Pseudo is Norm-conserving, Zval =  1.0
     Generated in analytical, separable form
     Using radial grid of  929 points,  0 beta functions with: 

     PseudoPot. # 3 for Y  read from file:
     ./Y.UPF
     MD5 check sum: 28b92b02874aa0fef5f1b1d2b706803c
     Pseudo is Norm-conserving, Zval =  3.0
     Generated in analytical, separable form
     Using radial grid of 1223 points,  7 beta functions with: 
                l(1) =   0
                l(2) =   0
                l(3) =   0
                l(4) =   1
                l(5) =   1
                l(6) =   2
                l(7) =   2

     Mode symmetry, C_s (m)     point group:


     Atomic displacements:
     There are   66 irreducible representations

     Representation     1      1 modes -  To be done

     Representation     2      1 modes -  To be done

     Representation     3      1 modes -  To be done

     Representation     4      1 modes -  To be done

     Representation     5      1 modes -  To be done

     Representation     6      1 modes -  To be done

     Representation     7      1 modes -  To be done

     Representation     8      1 modes -  To be done

     Representation     9      1 modes -  To be done

     Representation    10      1 modes -  To be done

     Representation    11      1 modes -  To be done

     Representation    12      1 modes -  To be done

     Representation    13      1 modes -  To be done

     Representation    14      1 modes -  To be done

     Representation    15      1 modes -  To be done

     Representation    16      1 modes -  To be done

     Representation    17      1 modes -  To be done

     Representation    18      1 modes -  To be done

     Representation    19      1 modes -  To be done

     Representation    20      1 modes -  To be done

     Representation    21      1 modes -  To be done

     Representation    22      1 modes -  To be done

     Representation    23      1 modes -  To be done

     Representation    24      1 modes -  To be done

     Representation    25      1 modes -  To be done

     Representation    26      1 modes -  To be done

     Representation    27      1 modes -  To be done

     Representation    28      1 modes -  To be done

     Representation    29      1 modes -  To be done

     Representation    30      1 modes -  To be done

     Representation    31      1 modes -  To be done

     Representation    32      1 modes -  To be done

     Representation    33      1 modes -  To be done

     Representation    34      1 modes -  To be done

     Representation    35      1 modes -  To be done

     Representation    36      1 modes -  To be done

     Representation    37      1 modes -  To be done

     Representation    38      1 modes -  To be done

     Representation    39      1 modes -  To be done

     Representation    40      1 modes -  To be done

     Representation    41      1 modes -  To be done

     Representation    42      1 modes -  To be done

     Representation    43      1 modes -  To be done

     Representation    44      1 modes -  To be done

     Representation    45      1 modes -  To be done

     Representation    46      1 modes -  To be done

     Representation    47      1 modes -  To be done

     Representation    48      1 modes -  To be done

     Representation    49      1 modes -  To be done

     Representation    50      1 modes -  To be done

     Representation    51      1 modes -  To be done

     Representation    52      1 modes -  To be done

     Representation    53      1 modes -  To be done

     Representation    54      1 modes -  To be done

     Representation    55      1 modes -  To be done

     Representation    56      1 modes -  To be done

     Representation    57      1 modes -  To be done

     Representation    58      1 modes -  To be done

     Representation    59      1 modes -  To be done

     Representation    60      1 modes -  To be done

     Representation    61      1 modes -  To be done

     Representation    62      1 modes -  To be done

     Representation    63      1 modes -  To be done

     Representation    64      1 modes -  To be done

     Representation    65      1 modes -  To be done

     Representation    66      1 modes -  To be done



     Alpha used in Ewald sum =   2.8000
     PHONON       :      2h 4m CPU      2h13m WALL



     Representation #   1 mode #   1

     Self-consistent Calculation

      iter #   1 total cpu time :  8065.1 secs   av.it.:   4.9
      thresh= 1.000E-02 alpha_mix =  0.700 |ddv_scf|^2 =  6.516E-06

      iter #   2 total cpu time :  8160.8 secs   av.it.:  13.7
      thresh= 2.553E-04 alpha_mix =  0.700 |ddv_scf|^2 =  6.776E-04

      iter #   3 total cpu time :  8236.0 secs   av.it.:   9.6
      thresh= 2.603E-03 alpha_mix =  0.700 |ddv_scf|^2 =  1.373E-07

      iter #   4 total cpu time :  8325.7 secs   av.it.:  13.9
      thresh= 3.705E-05 alpha_mix =  0.700 |ddv_scf|^2 =  1.734E-07

      iter #   5 total cpu time :  8407.1 secs   av.it.:  12.1
      thresh= 4.164E-05 alpha_mix =  0.700 |ddv_scf|^2 =  3.730E-09

     End of self-consistent calculation

     Convergence has been achieved 


     Representation #   2 mode #   2

     Self-consistent Calculation

      iter #   1 total cpu time :  8451.2 secs   av.it.:   4.6
      thresh= 1.000E-02 alpha_mix =  0.700 |ddv_scf|^2 =  7.376E-06

      iter #   2 total cpu time :  8543.1 secs   av.it.:  13.6
      thresh= 2.716E-04 alpha_mix =  0.700 |ddv_scf|^2 =  7.699E-04

      iter #   3 total cpu time :  8613.5 secs   av.it.:   9.6
      thresh= 2.775E-03 alpha_mix =  0.700 |ddv_scf|^2 =  1.479E-07

      iter #   4 total cpu time :  8705.0 secs   av.it.:  13.9
      thresh= 3.845E-05 alpha_mix =  0.700 |ddv_scf|^2 =  1.777E-07

      iter #   5 total cpu time :  8790.1 secs   av.it.:  12.1
      thresh= 4.215E-05 alpha_mix =  0.700 |ddv_scf|^2 =  5.008E-09

     End of self-consistent calculation

     Convergence has been achieved 


     Representation #   3 mode #   3

     Self-consistent Calculation

      iter #   1 total cpu time :  8837.3 secs   av.it.:   5.0
      thresh= 1.000E-02 alpha_mix =  0.700 |ddv_scf|^2 =  6.589E-06

      iter #   2 total cpu time :  8929.4 secs   av.it.:  13.7
      thresh= 2.567E-04 alpha_mix =  0.700 |ddv_scf|^2 =  6.796E-04

      iter #   3 total cpu time :  9003.5 secs   av.it.:   9.6
      thresh= 2.607E-03 alpha_mix =  0.700 |ddv_scf|^2 =  2.708E-07

      iter #   4 total cpu time :  9091.9 secs   av.it.:  13.4
      thresh= 5.204E-05 alpha_mix =  0.700 |ddv_scf|^2 =  1.465E-07

      iter #   5 total cpu time :  9179.5 secs   av.it.:  12.4
      thresh= 3.828E-05 alpha_mix =  0.700 |ddv_scf|^2 =  4.544E-09

     End of self-consistent calculation

     Convergence has been achieved 


     Representation #   4 mode #   4

     Self-consistent Calculation

      iter #   1 total cpu time :  9247.2 secs   av.it.:   8.7
      thresh= 1.000E-02 alpha_mix =  0.700 |ddv_scf|^2 =  9.033E-04

      iter #   2 total cpu time :  9341.1 secs   av.it.:  13.6
      thresh= 3.005E-03 alpha_mix =  0.700 |ddv_scf|^2 =  9.469E-02

      iter #   3 total cpu time :  9425.6 secs   av.it.:  11.4
      thresh= 1.000E-02 alpha_mix =  0.700 |ddv_scf|^2 =  1.304E-05

      iter #   4 total cpu time :  9518.9 secs   av.it.:  13.9
      thresh= 3.612E-04 alpha_mix =  0.700 |ddv_scf|^2 =  2.135E-05

      iter #   5 total cpu time :  9623.1 secs   av.it.:  12.0
      thresh= 4.620E-04 alpha_mix =  0.700 |ddv_scf|^2 =  6.065E-07

      iter #   6 total cpu time :  9737.5 secs   av.it.:  13.2
      thresh= 7.788E-05 alpha_mix =  0.700 |ddv_scf|^2 =  3.616E-09

     End of self-consistent calculation

[...]


     Representation #  53 mode #  53

     Self-consistent Calculation

      iter #   1 total cpu time :209865.9 secs   av.it.:   4.0
      thresh= 1.000E-02 alpha_mix =  0.700 |ddv_scf|^2 =  6.519E-09

     End of self-consistent calculation

     Convergence has been achieved 


     Representation #  54 mode #  54

     Self-consistent Calculation

      iter #   1 total cpu time :209905.7 secs   av.it.:   4.0
      thresh= 1.000E-02 alpha_mix =  0.700 |ddv_scf|^2 =  1.797E-08

      iter #   2 total cpu time :210000.7 secs   av.it.:  14.0
      thresh= 1.341E-05 alpha_mix =  0.700 |ddv_scf|^2 =  3.059E-09

     End of self-consistent calculation

     Convergence has been achieved 


     Representation #  55 mode #  55

     Self-consistent Calculation

      iter #   1 total cpu time :210041.1 secs   av.it.:   4.3
      thresh= 1.000E-02 alpha_mix =  0.700 |ddv_scf|^2 =  2.202E-08

      iter #   2 total cpu time :210151.4 secs   av.it.:  14.6
      thresh= 1.484E-05 alpha_mix =  0.700 |ddv_scf|^2 =  6.044E-09

     End of self-consistent calculation

     Convergence has been achieved 


     Representation #  56 mode #  56

     Self-consistent Calculation

      iter #   1 total cpu time :210189.5 secs   av.it.:   3.8
      thresh= 1.000E-02 alpha_mix =  0.700 |ddv_scf|^2 =  1.304E-09

     End of self-consistent calculation

     Convergence has been achieved 


     Representation #  57 mode #  57

     Self-consistent Calculation

      iter #   1 total cpu time :210228.4 secs   av.it.:   3.8
      thresh= 1.000E-02 alpha_mix =  0.700 |ddv_scf|^2 =  1.535E-09

     End of self-consistent calculation

     Convergence has been achieved 


     Representation #  58 mode #  58

     Self-consistent Calculation

      iter #   1 total cpu time :210269.3 secs   av.it.:   4.0
      thresh= 1.000E-02 alpha_mix =  0.700 |ddv_scf|^2 =  1.710E-08

      iter #   2 total cpu time :210373.6 secs   av.it.:  14.1
      thresh= 1.308E-05 alpha_mix =  0.700 |ddv_scf|^2 =  2.912E-09

     End of self-consistent calculation

     Convergence has been achieved 


     Representation #  59 mode #  59

     Self-consistent Calculation

      iter #   1 total cpu time :210426.1 secs   av.it.:   4.2
      thresh= 1.000E-02 alpha_mix =  0.700 |ddv_scf|^2 =  1.985E-08

      iter #   2 total cpu time :210546.7 secs   av.it.:  14.6
      thresh= 1.409E-05 alpha_mix =  0.700 |ddv_scf|^2 =  4.994E-09

     End of self-consistent calculation

     Convergence has been achieved 


     Representation #  60 mode #  60

     Self-consistent Calculation

      iter #   1 total cpu time :210598.3 secs   av.it.:   4.3
      thresh= 1.000E-02 alpha_mix =  0.700 |ddv_scf|^2 =  2.202E-08

      iter #   2 total cpu time :210704.4 secs   av.it.:  14.6
      thresh= 1.484E-05 alpha_mix =  0.700 |ddv_scf|^2 =  6.044E-09

     End of self-consistent calculation

     Convergence has been achieved 


     Representation #  61 mode #  61

     Self-consistent Calculation

      iter #   1 total cpu time :210756.2 secs   av.it.:   4.2
      thresh= 1.000E-02 alpha_mix =  0.700 |ddv_scf|^2 =  2.147E-08

      iter #   2 total cpu time :210858.3 secs   av.it.:  14.5
      thresh= 1.465E-05 alpha_mix =  0.700 |ddv_scf|^2 =  5.420E-09

     End of self-consistent calculation

     Convergence has been achieved 


     Representation #  62 mode #  62

     Self-consistent Calculation

      iter #   1 total cpu time :210908.5 secs   av.it.:   4.0
      thresh= 1.000E-02 alpha_mix =  0.700 |ddv_scf|^2 =  1.710E-08

      iter #   2 total cpu time :211031.5 secs   av.it.:  14.1
      thresh= 1.308E-05 alpha_mix =  0.700 |ddv_scf|^2 =  2.912E-09

     End of self-consistent calculation

     Convergence has been achieved 


     Representation #  63 mode #  63

     Self-consistent Calculation

      iter #   1 total cpu time :211074.1 secs   av.it.:   4.0
      thresh= 1.000E-02 alpha_mix =  0.700 |ddv_scf|^2 =  6.883E-09

     End of self-consistent calculation

     Convergence has been achieved 


     Representation #  64 mode #  64

     Self-consistent Calculation

      iter #   1 total cpu time :211140.3 secs   av.it.:   3.9
      thresh= 1.000E-02 alpha_mix =  0.700 |ddv_scf|^2 =  1.773E-08

      iter #   2 total cpu time :211234.5 secs   av.it.:  13.7
      thresh= 1.332E-05 alpha_mix =  0.700 |ddv_scf|^2 =  2.834E-09

     End of self-consistent calculation

     Convergence has been achieved 


     Representation #  65 mode #  65

     Self-consistent Calculation

      iter #   1 total cpu time :211295.4 secs   av.it.:   3.9
      thresh= 1.000E-02 alpha_mix =  0.700 |ddv_scf|^2 =  3.771E-09

     End of self-consistent calculation

     Convergence has been achieved 


     Representation #  66 mode #  66

     Self-consistent Calculation

      iter #   1 total cpu time :211357.2 secs   av.it.:   7.7
      thresh= 1.000E-02 alpha_mix =  0.700 |ddv_scf|^2 =  9.945E-07

      iter #   2 total cpu time :211457.6 secs   av.it.:  14.6
      thresh= 9.972E-05 alpha_mix =  0.700 |ddv_scf|^2 =  3.593E-07

      iter #   3 total cpu time :211553.3 secs   av.it.:  14.0
      thresh= 5.994E-05 alpha_mix =  0.700 |ddv_scf|^2 =  6.157E-10

     End of self-consistent calculation

     Convergence has been achieved 
 
     Number of q in the star =    6
     List of q in the star:
          1   1.279415251   0.738670740   0.132839399
          2   0.000000000  -1.477341479   0.132839399
          3  -1.279415251   0.738670740   0.132839399
          4  -1.279415251  -0.738670740  -0.132839399
          5   1.279415251  -0.738670740  -0.132839399
          6  -0.000000000   1.477341479  -0.132839399

     Diagonalizing the dynamical matrix

     q = (    1.279415251   0.738670740   0.132839399 ) 

 **************************************************************************
     freq (    1) =     -63.535255 [THz] =   -2119.307996 [cm-1]
     freq (    2) =     -56.390092 [THz] =   -1880.970995 [cm-1]
     freq (    3) =     -52.276416 [THz] =   -1743.753530 [cm-1]
     freq (    4) =     -49.859680 [THz] =   -1663.139894 [cm-1]
     freq (    5) =     -49.386219 [THz] =   -1647.346930 [cm-1]
     freq (    6) =     -43.743510 [THz] =   -1459.126419 [cm-1]
     freq (    7) =     -33.233263 [THz] =   -1108.542327 [cm-1]
     freq (    8) =     -31.131868 [THz] =   -1038.447322 [cm-1]
     freq (    9) =     -29.303616 [THz] =    -977.463406 [cm-1]
     freq (   10) =     -23.031921 [THz] =    -768.262175 [cm-1]
     freq (   11) =     -21.857513 [THz] =    -729.088153 [cm-1]
     freq (   12) =     -20.243295 [THz] =    -675.243653 [cm-1]
     freq (   13) =     -13.193523 [THz] =    -440.088556 [cm-1]
     freq (   14) =     -12.453689 [THz] =    -415.410366 [cm-1]
     freq (   15) =      -5.765737 [THz] =    -192.324293 [cm-1]
     freq (   16) =      -1.236257 [THz] =     -41.237079 [cm-1]
     freq (   17) =       3.537716 [THz] =     118.005505 [cm-1]
     freq (   18) =       4.398499 [THz] =     146.718139 [cm-1]
     freq (   19) =       4.466985 [THz] =     149.002584 [cm-1]
     freq (   20) =       7.183878 [THz] =     239.628372 [cm-1]
     freq (   21) =       8.382878 [THz] =     279.622707 [cm-1]
     freq (   22) =      10.419887 [THz] =     347.570008 [cm-1]
     freq (   23) =      11.558570 [THz] =     385.552402 [cm-1]
     freq (   24) =      14.972497 [THz] =     499.428740 [cm-1]
     freq (   25) =      19.532715 [THz] =     651.541229 [cm-1]
     freq (   26) =      22.403809 [THz] =     747.310626 [cm-1]
     freq (   27) =      24.170471 [THz] =     806.240114 [cm-1]
     freq (   28) =      24.572593 [THz] =     819.653464 [cm-1]
     freq (   29) =      25.917511 [THz] =     864.515101 [cm-1]
     freq (   30) =      26.347494 [THz] =     878.857795 [cm-1]
     freq (   31) =      26.720734 [THz] =     891.307760 [cm-1]
     freq (   32) =      28.124946 [THz] =     938.147218 [cm-1]
     freq (   33) =      28.256763 [THz] =     942.544153 [cm-1]
     freq (   34) =      28.829831 [THz] =     961.659646 [cm-1]
     freq (   35) =      30.553242 [THz] =    1019.146455 [cm-1]
     freq (   36) =      31.587110 [THz] =    1053.632573 [cm-1]
     freq (   37) =      31.912783 [THz] =    1064.495860 [cm-1]
     freq (   38) =      32.372783 [THz] =    1079.839809 [cm-1]
     freq (   39) =      33.459928 [THz] =    1116.103071 [cm-1]
     freq (   40) =      34.339575 [THz] =    1145.444917 [cm-1]
     freq (   41) =      34.977139 [THz] =    1166.711761 [cm-1]
     freq (   42) =      35.100489 [THz] =    1170.826290 [cm-1]
     freq (   43) =      36.406082 [THz] =    1214.376193 [cm-1]
     freq (   44) =      38.050546 [THz] =    1269.229605 [cm-1]
     freq (   45) =      39.494703 [THz] =    1317.401485 [cm-1]
     freq (   46) =      40.598778 [THz] =    1354.229462 [cm-1]
     freq (   47) =      40.689707 [THz] =    1357.262520 [cm-1]
     freq (   48) =      41.840231 [THz] =    1395.639880 [cm-1]
     freq (   49) =      42.170234 [THz] =    1406.647606 [cm-1]
     freq (   50) =      45.900242 [THz] =    1531.067270 [cm-1]
     freq (   51) =      46.887151 [THz] =    1563.986995 [cm-1]
     freq (   52) =      46.983182 [THz] =    1567.190244 [cm-1]
     freq (   53) =      47.447854 [THz] =    1582.690039 [cm-1]
     freq (   54) =      48.907456 [THz] =    1631.377133 [cm-1]
     freq (   55) =      50.878603 [THz] =    1697.127511 [cm-1]
     freq (   56) =      51.079422 [THz] =    1703.826128 [cm-1]
     freq (   57) =      52.340142 [THz] =    1745.879222 [cm-1]
     freq (   58) =      53.377724 [THz] =    1780.489226 [cm-1]
     freq (   59) =      55.408585 [THz] =    1848.231436 [cm-1]
     freq (   60) =      55.969917 [THz] =    1866.955467 [cm-1]
     freq (   61) =      57.947310 [THz] =    1932.914207 [cm-1]
     freq (   62) =      58.224424 [THz] =    1942.157721 [cm-1]
     freq (   63) =      60.334735 [THz] =    2012.550119 [cm-1]
     freq (   64) =      66.701225 [THz] =    2224.913387 [cm-1]
     freq (   65) =      74.845587 [THz] =    2496.580062 [cm-1]
     freq (   66) =     104.578542 [THz] =    3488.364688 [cm-1]
 **************************************************************************

     Mode symmetry, C_s (m)     point group:

     freq (   1-   1) =      -2119.3  [cm-1]   --> A''                
     freq (   2-   2) =      -1881.0  [cm-1]   --> A''                
     freq (   3-   3) =      -1743.8  [cm-1]   --> A''                
     freq (   4-   4) =      -1663.1  [cm-1]   --> A'                 
     freq (   5-   5) =      -1647.3  [cm-1]   --> A''                
     freq (   6-   6) =      -1459.1  [cm-1]   --> A''                
     freq (   7-   7) =      -1108.5  [cm-1]   --> A''                
     freq (   8-   8) =      -1038.4  [cm-1]   --> A''                
     freq (   9-   9) =       -977.5  [cm-1]   --> A''                
     freq (  10-  10) =       -768.3  [cm-1]   --> A'                 
     freq (  11-  11) =       -729.1  [cm-1]   --> A''                
     freq (  12-  12) =       -675.2  [cm-1]   --> A''                
     freq (  13-  13) =       -440.1  [cm-1]   --> A''                
     freq (  14-  14) =       -415.4  [cm-1]   --> A'                 
     freq (  15-  15) =       -192.3  [cm-1]   --> A'                 
     freq (  16-  16) =        -41.2  [cm-1]   --> A''                
     freq (  17-  17) =        118.0  [cm-1]   --> A'                 
     freq (  18-  18) =        146.7  [cm-1]   --> A'                 
     freq (  19-  19) =        149.0  [cm-1]   --> A''                
     freq (  20-  20) =        239.6  [cm-1]   --> A'                 
     freq (  21-  21) =        279.6  [cm-1]   --> A'                 
     freq (  22-  22) =        347.6  [cm-1]   --> A'                 
     freq (  23-  23) =        385.6  [cm-1]   --> A''                
     freq (  24-  24) =        499.4  [cm-1]   --> A'                 
     freq (  25-  25) =        651.5  [cm-1]   --> A'                 
     freq (  26-  26) =        747.3  [cm-1]   --> A'                 
     freq (  27-  27) =        806.2  [cm-1]   --> A''                
     freq (  28-  28) =        819.7  [cm-1]   --> A'                 
     freq (  29-  29) =        864.5  [cm-1]   --> A'                 
     freq (  30-  30) =        878.9  [cm-1]   --> A''                
     freq (  31-  31) =        891.3  [cm-1]   --> A'                 
     freq (  32-  32) =        938.1  [cm-1]   --> A'                 
     freq (  33-  33) =        942.5  [cm-1]   --> A'                 
     freq (  34-  34) =        961.7  [cm-1]   --> A'                 
     freq (  35-  35) =       1019.1  [cm-1]   --> A'                 
     freq (  36-  36) =       1053.6  [cm-1]   --> A'                 
     freq (  37-  37) =       1064.5  [cm-1]   --> A''                
     freq (  38-  38) =       1079.8  [cm-1]   --> A'                 
     freq (  39-  39) =       1116.1  [cm-1]   --> A''                
     freq (  40-  40) =       1145.4  [cm-1]   --> A'                 
     freq (  41-  41) =       1166.7  [cm-1]   --> A'                 
     freq (  42-  42) =       1170.8  [cm-1]   --> A''                
     freq (  43-  43) =       1214.4  [cm-1]   --> A'                 
     freq (  44-  44) =       1269.2  [cm-1]   --> A'                 
     freq (  45-  45) =       1317.4  [cm-1]   --> A'                 
     freq (  46-  46) =       1354.2  [cm-1]   --> A''                
     freq (  47-  47) =       1357.3  [cm-1]   --> A'                 
     freq (  48-  48) =       1395.6  [cm-1]   --> A'                 
     freq (  49-  49) =       1406.6  [cm-1]   --> A''                
     freq (  50-  50) =       1531.1  [cm-1]   --> A'                 
     freq (  51-  51) =       1564.0  [cm-1]   --> A'                 
     freq (  52-  52) =       1567.2  [cm-1]   --> A''                
     freq (  53-  53) =       1582.7  [cm-1]   --> A'                 
     freq (  54-  54) =       1631.4  [cm-1]   --> A'                 
     freq (  55-  55) =       1697.1  [cm-1]   --> A''                
     freq (  56-  56) =       1703.8  [cm-1]   --> A'                 
     freq (  57-  57) =       1745.9  [cm-1]   --> A'                 
     freq (  58-  58) =       1780.5  [cm-1]   --> A'                 
     freq (  59-  59) =       1848.2  [cm-1]   --> A'                 
     freq (  60-  60) =       1867.0  [cm-1]   --> A'                 
     freq (  61-  61) =       1932.9  [cm-1]   --> A''                
     freq (  62-  62) =       1942.2  [cm-1]   --> A'                 
     freq (  63-  63) =       2012.6  [cm-1]   --> A'                 
     freq (  64-  64) =       2224.9  [cm-1]   --> A'                 
     freq (  65-  65) =       2496.6  [cm-1]   --> A''                
     freq (  66-  66) =       3488.4  [cm-1]   --> A''                
 
     init_run     :      0.79s CPU      0.90s WALL (      10 calls)
     electrons    :   4773.98s CPU   4936.41s WALL (      10 calls)

     Called by init_run:
     wfcinit      :      0.00s CPU      0.07s WALL (      10 calls)
     potinit      :      0.02s CPU      0.03s WALL (      10 calls)
     hinit0       :      0.34s CPU      0.34s WALL (      10 calls)

     Called by electrons:
     c_bands      :   4759.86s CPU   4922.20s WALL (      10 calls)
     v_of_rho     :      0.01s CPU      0.01s WALL (      11 calls)

     Called by c_bands:
     init_us_2    :    513.62s CPU    551.14s WALL ( 3644276 calls)
     init_us_2:cp :    504.23s CPU    542.25s WALL ( 3644276 calls)
     cegterg      :   4284.67s CPU   4376.87s WALL (   58534 calls)

     Called by *egterg:
     cdiaghg      :   1299.57s CPU   1318.75s WALL ( 1016137 calls)
     h_psi        : 140872.59s CPU 144993.26s WALL (49312445 calls)
     g_psi        :      8.35s CPU      8.49s WALL (  996537 calls)

     Called by h_psi:
     h_psi:calbec :   4404.40s CPU   4529.61s WALL (49312445 calls)
     vloc_psi     : 134331.34s CPU 138257.94s WALL (49312445 calls)
     add_vuspsi   :   1644.99s CPU   1702.85s WALL (49312445 calls)

     General routines
     calbec       :   6761.61s CPU   6973.29s WALL (******** calls)
     fft          :      0.87s CPU      1.19s WALL (    7024 calls)
     ffts         :    860.20s CPU    877.41s WALL (  687456 calls)
     fftw         : 159378.48s CPU 163998.24s WALL (******** calls)
     davcio       :    541.73s CPU   6848.02s WALL (13110210 calls)
 
     Parallel routines
 
     PHONON       :   2d 7h 8m CPU   2d10h46m WALL

     INITIALIZATION: 
     phq_setup    :      1.68s CPU      1.93s WALL (      10 calls)
     phq_init     :     40.05s CPU     41.27s WALL (      10 calls)
 
     phq_init     :     40.05s CPU     41.27s WALL (      10 calls)
     init_vloc    :      0.21s CPU      0.22s WALL (      11 calls)
     init_us_1    :      0.16s CPU      0.16s WALL (      11 calls)
     init_us_2    :    513.62s CPU    551.14s WALL ( 3644276 calls)
 
     DYNAMICAL MATRIX:
     dynmat0      :     34.85s CPU     35.34s WALL (      10 calls)
     phqscf       : 193679.38s CPU 206559.53s WALL (      10 calls)
     dynmatrix    :     11.41s CPU     15.24s WALL (      10 calls)
 
     phqscf       : 193679.38s CPU 206559.53s WALL (      10 calls)
     solve_linter : 193283.23s CPU 205897.18s WALL (     616 calls)
     drhodv       :    393.74s CPU    414.58s WALL (     616 calls)
 
     dynmat0      :     34.85s CPU     35.34s WALL (      10 calls)
     dynmat_us    :     33.93s CPU     34.33s WALL (      10 calls)
     d2ionq       :      0.88s CPU      0.89s WALL (      10 calls)
 
     dynmat_us    :     33.93s CPU     34.33s WALL (      10 calls)
 
     phqscf       : 193679.38s CPU 206559.53s WALL (      10 calls)
     solve_linter : 193283.23s CPU 205897.18s WALL (     616 calls)
 
     solve_linter : 193283.23s CPU 205897.18s WALL (     616 calls)
     dvqpsi_us    :   4604.46s CPU   4750.08s WALL (  646800 calls)
     sth_kernel   : 188400.92s CPU 199801.30s WALL (    2279 calls)
     apply_dpot_b :   9179.22s CPU   9589.04s WALL ( 1714180 calls)
     ortho        :    358.66s CPU    376.75s WALL ( 2360980 calls)
     cgsolve      : 147245.59s CPU 151587.99s WALL ( 2360980 calls)
     incdrhoscf   :  30057.23s CPU  30797.59s WALL ( 2360980 calls)
     dv_of_drho   :      0.96s CPU      1.32s WALL (    2327 calls)
     mix_pot      :     30.27s CPU    235.89s WALL (    2279 calls)
     psymdvscf    :     72.35s CPU     73.16s WALL (    1744 calls)
 
     dvqpsi_us    :   4604.46s CPU   4750.08s WALL (  646800 calls)
     dvqpsi_us_on :    330.31s CPU    337.68s WALL (  646800 calls)
 
     cgsolve      : 147245.59s CPU 151587.99s WALL ( 2360980 calls)
     ch_psi       : 144757.86s CPU 149007.80s WALL (48237774 calls)
 
     ch_psi       : 144757.86s CPU 149007.80s WALL (48237774 calls)
     h_psi        : 140872.59s CPU 144993.26s WALL (49312445 calls)
     last         :   5789.23s CPU   5972.99s WALL (48237774 calls)
 
     h_psi        : 140872.59s CPU 144993.26s WALL (49312445 calls)
     add_vuspsi   :   1644.99s CPU   1702.85s WALL (49312445 calls)
 
     incdrhoscf   :  30057.23s CPU  30797.59s WALL ( 2360980 calls)
 
 
      General routines
     calbec       :   6761.61s CPU   6973.29s WALL (******** calls)
     fft          :      0.87s CPU      1.19s WALL (    7024 calls)
     ffts         :    860.20s CPU    877.41s WALL (  687456 calls)
     fftw         : 159378.48s CPU 163998.24s WALL (******** calls)
     davcio       :    541.73s CPU   6848.02s WALL (13110210 calls)
     write_rec    :      3.47s CPU    889.94s WALL (    2895 calls)
 
 
     PHONON       :   2d 7h 8m CPU   2d10h46m WALL

 
   This run was terminated on:   6:23:58  29May2022            

=------------------------------------------------------------------------------=
   JOB DONE.
=------------------------------------------------------------------------------=
