
     Program PHONON v.6.3MaX starts on  5Oct2020 at 18:40:13 

     This program is part of the open-source Quantum ESPRESSO suite
     for quantum simulation of materials; please cite
         "P. Giannozzi et al., J. Phys.:Condens. Matter 21 395502 (2009);
         "P. Giannozzi et al., J. Phys.:Condens. Matter 29 465901 (2017);
          URL http://www.quantum-espresso.org", 
     in publications or presentations arising from this work. More details at
     http://www.quantum-espresso.org/quote

     Parallel version (MPI), running on    16 processors

     MPI processes distributed on     1 nodes
     R & G space division:  proc/nbgrp/npool/nimage =      16

     Reading data from directory:
     ./La2H20.save/

     IMPORTANT: XC functional enforced from input :
     Exchange-correlation      = PBE ( 1  4  3  4 0 0)
     Any further DFT definition will be discarded
     Please, verify this is what you really want

 
     Parallelization info
     --------------------
     sticks:   dense  smooth     PW     G-vecs:    dense   smooth      PW
     Min          69      69     20                 2515     2515     402
     Max          70      70     21                 2522     2522     407
     Sum        1117    1117    333                40313    40313    6465
 


     Dynamical matrices for ( 3, 3, 2)  uniform grid of q-points
     With a half shift
     (   4 q-points):
       N         xq(1)         xq(2)         xq(3) 
       1   0.166666667   0.166669188   0.176776320
       2   0.166666667  -0.500007564   0.176776320
       3  -0.500000000   0.166669188   0.176776320
       4  -0.500000000  -0.500007564   0.176776320
     Because shifted q grid is used, q2r will not work !
Eigenvectors exchange needed   20   57

     Calculation of q =    0.1666667   0.1666692   0.1767763

     Subspace diagonalization in iterative solution of the eigenvalue problem:
     one sub-group per k-point group (pool) will be used
     scalapack distributed-memory algorithm (size of sub-group:  2*  2 procs)

     [opt_tetra]  Optimized tetrahedron method is used.
 
     Parallelization info
     --------------------
     sticks:   dense  smooth     PW     G-vecs:    dense   smooth      PW
     Min          69      69     21                 2515     2515     419
     Max          70      70     22                 2522     2522     424
     Sum        1117    1117    341                40313    40313    6721
 

     Title: 
     La2H20 phonon                                                              


     bravais-lattice index     =            0
     lattice parameter (alat)  =       6.6631  a.u.
     unit-cell volume          =     418.3509 (a.u.)^3
     number of atoms/cell      =           22
     number of atomic types    =            2
     number of electrons       =        42.00
     number of Kohn-Sham states=           25
     kinetic-energy cutoff     =      80.0000  Ry
     charge density cutoff     =     320.0000  Ry
     Exchange-correlation      = PBE ( 1  4  3  4 0 0)

     celldm(1)=   6.663112  celldm(2)=   0.999985  celldm(3)=   1.414217
     celldm(4)=   0.000000  celldm(5)=   0.000000  celldm(6)=   0.000000

     crystal axes: (cart. coord. in units of alat)
               a(1) = (   1.000000   0.000000   0.000000 )  
               a(2) = (   0.000000   0.999985   0.000000 )  
               a(3) = (   0.000000   0.000000   1.414217 )  

     reciprocal axes: (cart. coord. in units 2 pi/alat)
               b(1) = (  1.000000  0.000000  0.000000 )  
               b(2) = (  0.000000  1.000015  0.000000 )  
               b(3) = (  0.000000  0.000000  0.707105 )  


     PseudoPot. # 1 for La read from file:
     ./La.pbe-hgh.UPF
     MD5 check sum: 61d181712d8d9c51ac62657414fb885e
     Pseudo is Norm-conserving, Zval = 11.0
     Generated in analytical, separable form
     Using radial grid of 1253 points,  6 beta functions with: 
                l(1) =   0
                l(2) =   0
                l(3) =   1
                l(4) =   1
                l(5) =   2
                l(6) =   3

     PseudoPot. # 2 for H  read from file:
     ./H.pbe-hgh.UPF
     MD5 check sum: 50ae4f52d34cf16cdfed4bce9c5a191e
     Pseudo is Norm-conserving, Zval =  1.0
     Generated in analytical, separable form
     Using radial grid of  929 points,  0 beta functions with: 

     atomic species   valence    mass     pseudopotential
        La            11.00   138.90000     La( 1.00)
        H              1.00     1.00782     H ( 1.00)

      8 Sym. Ops., with inversion, found



   Cartesian axes

     site n.     atom                  positions (alat units)
         1           La  tau(   1) = (  -0.0000000   0.0000000  -0.0000000  )
         2           La  tau(   2) = (   0.5000000   0.4999924   0.7071084  )
         3           H   tau(   3) = (   0.7411303   0.4999924   0.1704065  )
         4           H   tau(   4) = (   0.2588697   0.4999924   1.2438103  )
         5           H   tau(   5) = (   0.2588697   0.4999924   0.1704065  )
         6           H   tau(   6) = (   0.7411303   0.4999924   1.2438103  )
         7           H   tau(   7) = (   0.5000000   0.7411188   0.1703905  )
         8           H   tau(   8) = (   0.5000000   0.2588660   1.2438263  )
         9           H   tau(   9) = (   0.5000000   0.2588660   0.1703905  )
        10           H   tau(  10) = (   0.5000000   0.7411189   1.2438263  )
        11           H   tau(  11) = (   0.7590814   0.0000000   0.5365726  )
        12           H   tau(  12) = (   0.2409187   0.0000000   0.8776437  )
        13           H   tau(  13) = (   0.2409186   0.0000000   0.5365726  )
        14           H   tau(  14) = (   0.7590813   0.0000000   0.8776437  )
        15           H   tau(  15) = (   0.0000000   0.7590707   0.5365903  )
        16           H   tau(  16) = (   0.0000000   0.2409142   0.8776260  )
        17           H   tau(  17) = (   0.0000000   0.2409141   0.5365903  )
        18           H   tau(  18) = (   0.0000000   0.7590706   0.8776260  )
        19           H   tau(  19) = (   0.0000000   0.4999924   1.0602265  )
        20           H   tau(  20) = (  -0.0000000   0.4999924   0.3539901  )
        21           H   tau(  21) = (   0.5000000  -0.0000000   1.0602073  )
        22           H   tau(  22) = (   0.5000000   0.0000000   0.3540093  )

     number of k points=  3456 (tetrahedron method)

     Number of k-points >= 100: set verbosity='high' to print them.

     Dense  grid:    40313 G-vectors     FFT dimensions: (  40,  40,  54)

     Estimated max dynamical RAM per process >       6.61 MB

     Estimated total dynamical RAM >     105.81 MB

     The potential is recalculated from file :
     ./_ph0/La2H20.q_1/La2H20.save/charge-density.dat

     Starting wfcs are   20 atomic +    5 random wfcs

     Band Structure Calculation
     Davidson diagonalization with overlap
     c_bands:  1 eigenvalues not converged
     c_bands:  1 eigenvalues not converged
     c_bands:  1 eigenvalues not converged
     c_bands:  1 eigenvalues not converged
     c_bands:  1 eigenvalues not converged
     c_bands:  1 eigenvalues not converged
     c_bands:  1 eigenvalues not converged
     c_bands:  1 eigenvalues not converged
     c_bands:  1 eigenvalues not converged
     c_bands:  1 eigenvalues not converged
     c_bands:  1 eigenvalues not converged
     c_bands:  1 eigenvalues not converged
     c_bands:  1 eigenvalues not converged
     c_bands:  1 eigenvalues not converged
     c_bands:  1 eigenvalues not converged
     c_bands:  1 eigenvalues not converged
     c_bands:  1 eigenvalues not converged
     c_bands:  1 eigenvalues not converged
     c_bands:  1 eigenvalues not converged
     c_bands:  1 eigenvalues not converged
     c_bands:  1 eigenvalues not converged
     c_bands:  1 eigenvalues not converged
     c_bands:  1 eigenvalues not converged
     c_bands:  1 eigenvalues not converged
     c_bands:  1 eigenvalues not converged
     c_bands:  1 eigenvalues not converged
     c_bands:  1 eigenvalues not converged
     c_bands:  1 eigenvalues not converged
     c_bands:  1 eigenvalues not converged
     c_bands:  1 eigenvalues not converged
     c_bands:  1 eigenvalues not converged
     c_bands:  1 eigenvalues not converged
     c_bands:  1 eigenvalues not converged
     c_bands:  1 eigenvalues not converged
     c_bands:  1 eigenvalues not converged
     c_bands:  1 eigenvalues not converged
     c_bands:  1 eigenvalues not converged
     c_bands:  1 eigenvalues not converged
     c_bands:  1 eigenvalues not converged
     c_bands:  1 eigenvalues not converged
     c_bands:  1 eigenvalues not converged
     c_bands:  1 eigenvalues not converged
     c_bands:  1 eigenvalues not converged
     c_bands:  1 eigenvalues not converged
     c_bands:  1 eigenvalues not converged
     c_bands:  1 eigenvalues not converged
     c_bands:  1 eigenvalues not converged
     c_bands:  1 eigenvalues not converged
     c_bands:  1 eigenvalues not converged
     c_bands:  1 eigenvalues not converged
     c_bands:  1 eigenvalues not converged
     c_bands:  1 eigenvalues not converged
     c_bands:  1 eigenvalues not converged
     c_bands:  1 eigenvalues not converged
     c_bands:  1 eigenvalues not converged
     c_bands:  1 eigenvalues not converged
     c_bands:  1 eigenvalues not converged
     c_bands:  1 eigenvalues not converged
     c_bands:  1 eigenvalues not converged
     c_bands:  1 eigenvalues not converged
     c_bands:  1 eigenvalues not converged
     c_bands:  1 eigenvalues not converged
     c_bands:  1 eigenvalues not converged
     c_bands:  1 eigenvalues not converged
     c_bands:  1 eigenvalues not converged
     c_bands:  1 eigenvalues not converged
     c_bands:  1 eigenvalues not converged
     c_bands:  1 eigenvalues not converged
     c_bands:  1 eigenvalues not converged
     c_bands:  1 eigenvalues not converged
     c_bands:  1 eigenvalues not converged
     c_bands:  1 eigenvalues not converged
     c_bands:  1 eigenvalues not converged
     c_bands:  1 eigenvalues not converged
     c_bands:  1 eigenvalues not converged
     c_bands:  1 eigenvalues not converged
     c_bands:  1 eigenvalues not converged
     c_bands:  1 eigenvalues not converged
     c_bands:  1 eigenvalues not converged
     c_bands:  1 eigenvalues not converged
     c_bands:  1 eigenvalues not converged
     c_bands:  1 eigenvalues not converged
     c_bands:  1 eigenvalues not converged
     c_bands:  1 eigenvalues not converged
     c_bands:  1 eigenvalues not converged
     c_bands:  1 eigenvalues not converged
     c_bands:  1 eigenvalues not converged
     c_bands:  1 eigenvalues not converged
     c_bands:  1 eigenvalues not converged
     c_bands:  1 eigenvalues not converged
     c_bands:  1 eigenvalues not converged
     c_bands:  1 eigenvalues not converged
     c_bands:  1 eigenvalues not converged
     c_bands:  1 eigenvalues not converged
     c_bands:  1 eigenvalues not converged
     c_bands:  1 eigenvalues not converged
     c_bands:  1 eigenvalues not converged
     c_bands:  1 eigenvalues not converged
     c_bands:  1 eigenvalues not converged
     c_bands:  1 eigenvalues not converged
     c_bands:  1 eigenvalues not converged
     c_bands:  1 eigenvalues not converged
     c_bands:  1 eigenvalues not converged
     c_bands:  1 eigenvalues not converged
     c_bands:  1 eigenvalues not converged
     c_bands:  1 eigenvalues not converged
     c_bands:  1 eigenvalues not converged
     c_bands:  1 eigenvalues not converged
     c_bands:  1 eigenvalues not converged
     c_bands:  1 eigenvalues not converged
     c_bands:  1 eigenvalues not converged
     c_bands:  1 eigenvalues not converged
     c_bands:  1 eigenvalues not converged
     c_bands:  1 eigenvalues not converged
     c_bands:  1 eigenvalues not converged
     c_bands:  1 eigenvalues not converged
     c_bands:  1 eigenvalues not converged
     c_bands:  1 eigenvalues not converged
     c_bands:  1 eigenvalues not converged
     c_bands:  1 eigenvalues not converged
     c_bands:  1 eigenvalues not converged
     c_bands:  1 eigenvalues not converged
     c_bands:  1 eigenvalues not converged
     c_bands:  1 eigenvalues not converged
     c_bands:  1 eigenvalues not converged
     c_bands:  1 eigenvalues not converged
     c_bands:  1 eigenvalues not converged
     c_bands:  1 eigenvalues not converged
     c_bands:  1 eigenvalues not converged
     c_bands:  1 eigenvalues not converged
     c_bands:  1 eigenvalues not converged
     c_bands:  1 eigenvalues not converged
     c_bands:  1 eigenvalues not converged
     c_bands:  1 eigenvalues not converged
     c_bands:  1 eigenvalues not converged
     c_bands:  1 eigenvalues not converged
     c_bands:  1 eigenvalues not converged
     c_bands:  1 eigenvalues not converged
     c_bands:  1 eigenvalues not converged
     c_bands:  1 eigenvalues not converged
     c_bands:  1 eigenvalues not converged
     c_bands:  1 eigenvalues not converged
     c_bands:  1 eigenvalues not converged
     c_bands:  1 eigenvalues not converged
     c_bands:  1 eigenvalues not converged
     c_bands:  1 eigenvalues not converged
     c_bands:  1 eigenvalues not converged
     c_bands:  1 eigenvalues not converged
     c_bands:  1 eigenvalues not converged
     c_bands:  1 eigenvalues not converged
     c_bands:  1 eigenvalues not converged
     c_bands:  1 eigenvalues not converged
     c_bands:  1 eigenvalues not converged
     c_bands:  1 eigenvalues not converged
     c_bands:  1 eigenvalues not converged
     c_bands:  1 eigenvalues not converged
     c_bands:  1 eigenvalues not converged
     c_bands:  1 eigenvalues not converged
     c_bands:  1 eigenvalues not converged
     c_bands:  1 eigenvalues not converged
     c_bands:  1 eigenvalues not converged
     c_bands:  1 eigenvalues not converged
     c_bands:  3 eigenvalues not converged
     c_bands:  1 eigenvalues not converged
     c_bands:  1 eigenvalues not converged
     c_bands:  2 eigenvalues not converged
     c_bands:  1 eigenvalues not converged
     c_bands:  1 eigenvalues not converged
     c_bands:  1 eigenvalues not converged
     c_bands:  1 eigenvalues not converged
     c_bands:  1 eigenvalues not converged
     c_bands:  1 eigenvalues not converged
     c_bands:  1 eigenvalues not converged
     c_bands:  1 eigenvalues not converged
     c_bands:  1 eigenvalues not converged
     c_bands:  1 eigenvalues not converged
     c_bands:  1 eigenvalues not converged
     c_bands:  1 eigenvalues not converged
     c_bands:  1 eigenvalues not converged
     c_bands:  1 eigenvalues not converged
     c_bands:  1 eigenvalues not converged
     c_bands:  1 eigenvalues not converged
     c_bands:  1 eigenvalues not converged
     c_bands:  1 eigenvalues not converged
     c_bands:  1 eigenvalues not converged
     c_bands:  1 eigenvalues not converged
     c_bands:  1 eigenvalues not converged
     c_bands:  1 eigenvalues not converged
     c_bands:  1 eigenvalues not converged
     c_bands:  1 eigenvalues not converged
     c_bands:  1 eigenvalues not converged
     c_bands:  1 eigenvalues not converged
     c_bands:  1 eigenvalues not converged
     c_bands:  1 eigenvalues not converged
     c_bands:  1 eigenvalues not converged
     c_bands:  1 eigenvalues not converged
     c_bands:  1 eigenvalues not converged
     c_bands:  1 eigenvalues not converged
     c_bands:  1 eigenvalues not converged
     c_bands:  1 eigenvalues not converged
     c_bands:  1 eigenvalues not converged
     c_bands:  1 eigenvalues not converged
     c_bands:  1 eigenvalues not converged
     c_bands:  1 eigenvalues not converged
     c_bands:  1 eigenvalues not converged
     c_bands:  1 eigenvalues not converged
     c_bands:  1 eigenvalues not converged
     c_bands:  1 eigenvalues not converged
     c_bands:  1 eigenvalues not converged
     c_bands:  1 eigenvalues not converged
     c_bands:  1 eigenvalues not converged
     c_bands:  1 eigenvalues not converged
     c_bands:  1 eigenvalues not converged
     c_bands:  1 eigenvalues not converged
     c_bands:  1 eigenvalues not converged
     c_bands:  1 eigenvalues not converged
     c_bands:  1 eigenvalues not converged
     c_bands:  1 eigenvalues not converged
     c_bands:  1 eigenvalues not converged
     c_bands:  1 eigenvalues not converged
     c_bands:  1 eigenvalues not converged
     c_bands:  1 eigenvalues not converged
     c_bands:  1 eigenvalues not converged
     c_bands:  1 eigenvalues not converged
     c_bands:  1 eigenvalues not converged
     c_bands:  1 eigenvalues not converged
     c_bands:  1 eigenvalues not converged
     c_bands:  1 eigenvalues not converged
     c_bands:  1 eigenvalues not converged
     c_bands:  1 eigenvalues not converged
     c_bands:  1 eigenvalues not converged
     c_bands:  1 eigenvalues not converged
     c_bands:  1 eigenvalues not converged
     c_bands:  1 eigenvalues not converged
     c_bands:  1 eigenvalues not converged
     c_bands:  1 eigenvalues not converged
     c_bands:  1 eigenvalues not converged
     c_bands:  1 eigenvalues not converged
     c_bands:  1 eigenvalues not converged
     c_bands:  1 eigenvalues not converged
     c_bands:  1 eigenvalues not converged
     c_bands:  1 eigenvalues not converged
     c_bands:  1 eigenvalues not converged
     c_bands:  1 eigenvalues not converged
     c_bands:  1 eigenvalues not converged
     c_bands:  1 eigenvalues not converged
     c_bands:  1 eigenvalues not converged
     c_bands:  1 eigenvalues not converged
     c_bands:  1 eigenvalues not converged
     c_bands:  1 eigenvalues not converged
     c_bands:  1 eigenvalues not converged
     c_bands:  1 eigenvalues not converged
     c_bands:  1 eigenvalues not converged
     c_bands:  1 eigenvalues not converged
     c_bands:  1 eigenvalues not converged
     c_bands:  1 eigenvalues not converged
     c_bands:  1 eigenvalues not converged
     c_bands:  1 eigenvalues not converged
     c_bands:  1 eigenvalues not converged
     c_bands:  1 eigenvalues not converged
     c_bands:  1 eigenvalues not converged
     c_bands:  1 eigenvalues not converged
     c_bands:  1 eigenvalues not converged
     c_bands:  1 eigenvalues not converged
     c_bands:  1 eigenvalues not converged
     c_bands:  1 eigenvalues not converged
     c_bands:  1 eigenvalues not converged
     c_bands:  1 eigenvalues not converged
     c_bands:  1 eigenvalues not converged
     c_bands:  1 eigenvalues not converged
     c_bands:  1 eigenvalues not converged
     c_bands:  1 eigenvalues not converged
     c_bands:  1 eigenvalues not converged
     c_bands:  1 eigenvalues not converged
     c_bands:  1 eigenvalues not converged
     c_bands:  1 eigenvalues not converged
     c_bands:  1 eigenvalues not converged
     c_bands:  1 eigenvalues not converged
     c_bands:  1 eigenvalues not converged
     c_bands:  1 eigenvalues not converged
     c_bands:  1 eigenvalues not converged
     c_bands:  1 eigenvalues not converged
     c_bands:  1 eigenvalues not converged
     c_bands:  1 eigenvalues not converged
     c_bands:  2 eigenvalues not converged
     c_bands:  1 eigenvalues not converged
     c_bands:  1 eigenvalues not converged
     c_bands:  1 eigenvalues not converged
     c_bands:  1 eigenvalues not converged
     c_bands:  1 eigenvalues not converged
     c_bands:  3 eigenvalues not converged
     c_bands:  1 eigenvalues not converged
     c_bands:  1 eigenvalues not converged
     c_bands:  1 eigenvalues not converged
     c_bands:  1 eigenvalues not converged
     c_bands:  1 eigenvalues not converged
     c_bands:  1 eigenvalues not converged
     c_bands:  1 eigenvalues not converged
     c_bands:  1 eigenvalues not converged
     c_bands:  1 eigenvalues not converged
     c_bands:  1 eigenvalues not converged
     c_bands:  1 eigenvalues not converged
     c_bands:  1 eigenvalues not converged
     c_bands:  1 eigenvalues not converged
     c_bands:  1 eigenvalues not converged
     c_bands:  1 eigenvalues not converged
     c_bands:  1 eigenvalues not converged
     c_bands:  1 eigenvalues not converged
     c_bands:  1 eigenvalues not converged
     c_bands:  1 eigenvalues not converged
     c_bands:  1 eigenvalues not converged
     c_bands:  1 eigenvalues not converged
     c_bands:  1 eigenvalues not converged
     c_bands:  1 eigenvalues not converged
     c_bands:  1 eigenvalues not converged
     c_bands:  1 eigenvalues not converged
     c_bands:  1 eigenvalues not converged
     c_bands:  1 eigenvalues not converged
     c_bands:  1 eigenvalues not converged
     c_bands:  1 eigenvalues not converged
     c_bands:  1 eigenvalues not converged
     c_bands:  1 eigenvalues not converged
     c_bands:  1 eigenvalues not converged
     c_bands:  1 eigenvalues not converged
     c_bands:  1 eigenvalues not converged
     c_bands:  1 eigenvalues not converged
     c_bands:  1 eigenvalues not converged
     c_bands:  1 eigenvalues not converged
     c_bands:  1 eigenvalues not converged
     c_bands:  1 eigenvalues not converged
     c_bands:  1 eigenvalues not converged
     c_bands:  1 eigenvalues not converged
     c_bands:  1 eigenvalues not converged
     c_bands:  1 eigenvalues not converged
     c_bands:  1 eigenvalues not converged
     c_bands:  1 eigenvalues not converged
     c_bands:  1 eigenvalues not converged
     c_bands:  1 eigenvalues not converged
     c_bands:  1 eigenvalues not converged
     c_bands:  1 eigenvalues not converged
     c_bands:  1 eigenvalues not converged
     c_bands:  1 eigenvalues not converged
     c_bands:  1 eigenvalues not converged
     c_bands:  1 eigenvalues not converged
     c_bands:  1 eigenvalues not converged
     c_bands:  1 eigenvalues not converged
     c_bands:  1 eigenvalues not converged
     c_bands:  1 eigenvalues not converged
     c_bands:  1 eigenvalues not converged
     c_bands:  1 eigenvalues not converged
     c_bands:  1 eigenvalues not converged
     c_bands:  1 eigenvalues not converged
     c_bands:  1 eigenvalues not converged
     c_bands:  1 eigenvalues not converged
     c_bands:  1 eigenvalues not converged
     c_bands:  1 eigenvalues not converged
     c_bands:  1 eigenvalues not converged
     c_bands:  1 eigenvalues not converged
     c_bands:  1 eigenvalues not converged
     c_bands:  1 eigenvalues not converged
     c_bands:  1 eigenvalues not converged
     c_bands:  1 eigenvalues not converged
     c_bands:  1 eigenvalues not converged
     c_bands:  1 eigenvalues not converged
     c_bands:  1 eigenvalues not converged
     c_bands:  1 eigenvalues not converged
     c_bands:  1 eigenvalues not converged
     c_bands:  1 eigenvalues not converged
     c_bands:  1 eigenvalues not converged
     c_bands:  1 eigenvalues not converged
     c_bands:  1 eigenvalues not converged
     c_bands:  1 eigenvalues not converged
     c_bands:  1 eigenvalues not converged
     c_bands:  1 eigenvalues not converged
     c_bands:  1 eigenvalues not converged
     c_bands:  1 eigenvalues not converged
     c_bands:  1 eigenvalues not converged
     c_bands:  1 eigenvalues not converged
     c_bands:  1 eigenvalues not converged
     c_bands:  1 eigenvalues not converged
     c_bands:  1 eigenvalues not converged
     c_bands:  1 eigenvalues not converged
     c_bands:  1 eigenvalues not converged
     c_bands:  1 eigenvalues not converged
     c_bands:  1 eigenvalues not converged
     c_bands:  1 eigenvalues not converged
     c_bands:  1 eigenvalues not converged
     c_bands:  1 eigenvalues not converged
     c_bands:  1 eigenvalues not converged
     c_bands:  1 eigenvalues not converged
     c_bands:  1 eigenvalues not converged
     c_bands:  1 eigenvalues not converged
     c_bands:  1 eigenvalues not converged
     c_bands:  1 eigenvalues not converged
     c_bands:  1 eigenvalues not converged
     c_bands:  1 eigenvalues not converged
     c_bands:  1 eigenvalues not converged
     c_bands:  1 eigenvalues not converged
     c_bands:  1 eigenvalues not converged
     c_bands:  1 eigenvalues not converged
     c_bands:  1 eigenvalues not converged
     c_bands:  1 eigenvalues not converged
     c_bands:  1 eigenvalues not converged
     c_bands:  1 eigenvalues not converged
     c_bands:  1 eigenvalues not converged
     c_bands:  1 eigenvalues not converged
     c_bands:  1 eigenvalues not converged
     c_bands:  1 eigenvalues not converged
     c_bands:  1 eigenvalues not converged
     c_bands:  1 eigenvalues not converged
     c_bands:  1 eigenvalues not converged
     c_bands:  1 eigenvalues not converged
     c_bands:  1 eigenvalues not converged
     c_bands:  1 eigenvalues not converged
     c_bands:  1 eigenvalues not converged
     c_bands:  1 eigenvalues not converged
     c_bands:  1 eigenvalues not converged
     c_bands:  1 eigenvalues not converged
     c_bands:  1 eigenvalues not converged
     c_bands:  1 eigenvalues not converged
     c_bands:  1 eigenvalues not converged
     c_bands:  1 eigenvalues not converged
     c_bands:  1 eigenvalues not converged
     c_bands:  1 eigenvalues not converged
     c_bands:  1 eigenvalues not converged
     c_bands:  1 eigenvalues not converged
     c_bands:  1 eigenvalues not converged
     c_bands:  1 eigenvalues not converged
     c_bands:  1 eigenvalues not converged
     c_bands:  1 eigenvalues not converged
     c_bands:  1 eigenvalues not converged
     c_bands:  1 eigenvalues not converged
     c_bands:  1 eigenvalues not converged
     c_bands:  1 eigenvalues not converged
     c_bands:  1 eigenvalues not converged
     c_bands:  1 eigenvalues not converged
     c_bands:  1 eigenvalues not converged
     c_bands:  1 eigenvalues not converged
     c_bands:  1 eigenvalues not converged
     c_bands:  1 eigenvalues not converged
     c_bands:  1 eigenvalues not converged
     c_bands:  1 eigenvalues not converged
     c_bands:  1 eigenvalues not converged
     c_bands:  1 eigenvalues not converged
     c_bands:  1 eigenvalues not converged
     c_bands:  1 eigenvalues not converged
     c_bands:  1 eigenvalues not converged
     c_bands:  1 eigenvalues not converged
     c_bands:  1 eigenvalues not converged
     c_bands:  1 eigenvalues not converged
     c_bands:  1 eigenvalues not converged
     c_bands:  1 eigenvalues not converged
     c_bands:  1 eigenvalues not converged
     c_bands:  1 eigenvalues not converged
     c_bands:  1 eigenvalues not converged
     c_bands:  1 eigenvalues not converged
     c_bands:  1 eigenvalues not converged
     c_bands:  1 eigenvalues not converged
     c_bands:  1 eigenvalues not converged
     c_bands:  1 eigenvalues not converged
     c_bands:  1 eigenvalues not converged
     c_bands:  1 eigenvalues not converged
     c_bands:  1 eigenvalues not converged
     c_bands:  1 eigenvalues not converged
     c_bands:  1 eigenvalues not converged
     c_bands:  1 eigenvalues not converged
     c_bands:  1 eigenvalues not converged
     c_bands:  1 eigenvalues not converged
     c_bands:  1 eigenvalues not converged
     c_bands:  1 eigenvalues not converged
     c_bands:  1 eigenvalues not converged
     c_bands:  1 eigenvalues not converged
     c_bands:  1 eigenvalues not converged
     c_bands:  1 eigenvalues not converged
     c_bands:  1 eigenvalues not converged
     c_bands:  1 eigenvalues not converged
     c_bands:  1 eigenvalues not converged
     c_bands:  1 eigenvalues not converged
     c_bands:  1 eigenvalues not converged
     c_bands:  1 eigenvalues not converged
     c_bands:  1 eigenvalues not converged
     c_bands:  1 eigenvalues not converged
     c_bands:  1 eigenvalues not converged
     c_bands:  1 eigenvalues not converged
     c_bands:  1 eigenvalues not converged
     c_bands:  1 eigenvalues not converged
     c_bands:  1 eigenvalues not converged
     c_bands:  1 eigenvalues not converged
     c_bands:  1 eigenvalues not converged
     c_bands:  1 eigenvalues not converged
     c_bands:  1 eigenvalues not converged
     c_bands:  1 eigenvalues not converged
     c_bands:  1 eigenvalues not converged
     c_bands:  1 eigenvalues not converged
     c_bands:  1 eigenvalues not converged
     c_bands:  1 eigenvalues not converged
     c_bands:  1 eigenvalues not converged
     c_bands:  1 eigenvalues not converged
     c_bands:  1 eigenvalues not converged
     c_bands:  1 eigenvalues not converged
     c_bands:  1 eigenvalues not converged
     c_bands:  1 eigenvalues not converged
     c_bands:  1 eigenvalues not converged
     c_bands:  1 eigenvalues not converged
     c_bands:  1 eigenvalues not converged
     c_bands:  1 eigenvalues not converged
     c_bands:  1 eigenvalues not converged
     c_bands:  1 eigenvalues not converged
     c_bands:  1 eigenvalues not converged
     c_bands:  1 eigenvalues not converged
     c_bands:  1 eigenvalues not converged
     c_bands:  1 eigenvalues not converged
     c_bands:  1 eigenvalues not converged
     c_bands:  1 eigenvalues not converged
     c_bands:  1 eigenvalues not converged
     c_bands:  1 eigenvalues not converged
     c_bands:  1 eigenvalues not converged
     c_bands:  1 eigenvalues not converged
     c_bands:  1 eigenvalues not converged
     c_bands:  1 eigenvalues not converged
     c_bands:  1 eigenvalues not converged
     c_bands:  1 eigenvalues not converged
     c_bands:  1 eigenvalues not converged
     c_bands:  1 eigenvalues not converged
     c_bands:  1 eigenvalues not converged
     c_bands:  1 eigenvalues not converged
     c_bands:  1 eigenvalues not converged
     c_bands:  1 eigenvalues not converged
     c_bands:  1 eigenvalues not converged
     c_bands:  1 eigenvalues not converged
     c_bands:  1 eigenvalues not converged
     c_bands:  1 eigenvalues not converged
     c_bands:  1 eigenvalues not converged
     c_bands:  1 eigenvalues not converged
     c_bands:  1 eigenvalues not converged
     c_bands:  1 eigenvalues not converged
     c_bands:  1 eigenvalues not converged
     c_bands:  1 eigenvalues not converged
     c_bands:  1 eigenvalues not converged
     c_bands:  1 eigenvalues not converged
     c_bands:  1 eigenvalues not converged
     c_bands:  1 eigenvalues not converged
     c_bands:  1 eigenvalues not converged
     c_bands:  1 eigenvalues not converged
     c_bands:  1 eigenvalues not converged
     c_bands:  1 eigenvalues not converged
     c_bands:  1 eigenvalues not converged
     c_bands:  1 eigenvalues not converged
     c_bands:  1 eigenvalues not converged
     c_bands:  1 eigenvalues not converged
     c_bands:  1 eigenvalues not converged
     c_bands:  1 eigenvalues not converged
     c_bands:  1 eigenvalues not converged
     c_bands:  1 eigenvalues not converged
     c_bands:  1 eigenvalues not converged
     c_bands:  1 eigenvalues not converged
     c_bands:  1 eigenvalues not converged
     c_bands:  1 eigenvalues not converged
     c_bands:  1 eigenvalues not converged
     c_bands:  1 eigenvalues not converged
     c_bands:  1 eigenvalues not converged
     c_bands:  1 eigenvalues not converged
     c_bands:  1 eigenvalues not converged
     c_bands:  1 eigenvalues not converged
     c_bands:  1 eigenvalues not converged
     c_bands:  1 eigenvalues not converged
     c_bands:  1 eigenvalues not converged
     c_bands:  1 eigenvalues not converged
     c_bands:  1 eigenvalues not converged
     c_bands:  1 eigenvalues not converged
     c_bands:  1 eigenvalues not converged
     c_bands:  1 eigenvalues not converged
     c_bands:  1 eigenvalues not converged
     c_bands:  1 eigenvalues not converged
     c_bands:  1 eigenvalues not converged
     c_bands:  1 eigenvalues not converged
     c_bands:  1 eigenvalues not converged
     c_bands:  1 eigenvalues not converged
     c_bands:  1 eigenvalues not converged
     c_bands:  1 eigenvalues not converged
     c_bands:  1 eigenvalues not converged
     c_bands:  1 eigenvalues not converged
     c_bands:  1 eigenvalues not converged
     c_bands:  1 eigenvalues not converged
     c_bands:  1 eigenvalues not converged
     c_bands:  1 eigenvalues not converged
     c_bands:  1 eigenvalues not converged
     c_bands:  1 eigenvalues not converged
     c_bands:  1 eigenvalues not converged
     c_bands:  1 eigenvalues not converged
     c_bands:  1 eigenvalues not converged
     c_bands:  1 eigenvalues not converged
     c_bands:  1 eigenvalues not converged
     c_bands:  1 eigenvalues not converged
     c_bands:  1 eigenvalues not converged
     c_bands:  1 eigenvalues not converged
     c_bands:  1 eigenvalues not converged
     c_bands:  1 eigenvalues not converged
     c_bands:  1 eigenvalues not converged
     c_bands:  1 eigenvalues not converged
     c_bands:  1 eigenvalues not converged
     c_bands:  1 eigenvalues not converged
     c_bands:  1 eigenvalues not converged
     c_bands:  1 eigenvalues not converged
     c_bands:  1 eigenvalues not converged
     c_bands:  1 eigenvalues not converged
     c_bands:  1 eigenvalues not converged
     c_bands:  1 eigenvalues not converged
     c_bands:  1 eigenvalues not converged
     c_bands:  1 eigenvalues not converged
     c_bands:  1 eigenvalues not converged
     c_bands:  1 eigenvalues not converged
     c_bands:  1 eigenvalues not converged
     c_bands:  1 eigenvalues not converged
     c_bands:  1 eigenvalues not converged
     c_bands:  1 eigenvalues not converged
     c_bands:  1 eigenvalues not converged
     c_bands:  1 eigenvalues not converged
     c_bands:  1 eigenvalues not converged
     c_bands:  1 eigenvalues not converged
     c_bands:  1 eigenvalues not converged
     c_bands:  1 eigenvalues not converged
     c_bands:  1 eigenvalues not converged
     c_bands:  1 eigenvalues not converged
     c_bands:  1 eigenvalues not converged
     c_bands:  1 eigenvalues not converged
     c_bands:  1 eigenvalues not converged
     c_bands:  1 eigenvalues not converged
     c_bands:  1 eigenvalues not converged
     c_bands:  1 eigenvalues not converged
     c_bands:  1 eigenvalues not converged
     c_bands:  1 eigenvalues not converged
     c_bands:  1 eigenvalues not converged
     c_bands:  1 eigenvalues not converged
     c_bands:  1 eigenvalues not converged
     c_bands:  1 eigenvalues not converged
     c_bands:  1 eigenvalues not converged
     c_bands:  1 eigenvalues not converged
     c_bands:  1 eigenvalues not converged
     c_bands:  1 eigenvalues not converged
     c_bands:  1 eigenvalues not converged
     c_bands:  1 eigenvalues not converged
     c_bands:  1 eigenvalues not converged
     c_bands:  1 eigenvalues not converged
     c_bands:  1 eigenvalues not converged
     c_bands:  1 eigenvalues not converged
     c_bands:  1 eigenvalues not converged
     c_bands:  1 eigenvalues not converged
     c_bands:  1 eigenvalues not converged
     c_bands:  1 eigenvalues not converged
     c_bands:  1 eigenvalues not converged
     c_bands:  1 eigenvalues not converged
     c_bands:  1 eigenvalues not converged
     c_bands:  1 eigenvalues not converged
     c_bands:  1 eigenvalues not converged
     c_bands:  1 eigenvalues not converged
     c_bands:  1 eigenvalues not converged
     c_bands:  1 eigenvalues not converged
     c_bands:  1 eigenvalues not converged
     c_bands:  1 eigenvalues not converged
     c_bands:  1 eigenvalues not converged
     c_bands:  1 eigenvalues not converged
     c_bands:  1 eigenvalues not converged
     c_bands:  1 eigenvalues not converged
     c_bands:  1 eigenvalues not converged
     c_bands:  1 eigenvalues not converged
     c_bands:  1 eigenvalues not converged
     c_bands:  1 eigenvalues not converged
     c_bands:  1 eigenvalues not converged
     c_bands:  1 eigenvalues not converged
     c_bands:  1 eigenvalues not converged
     c_bands:  1 eigenvalues not converged
     c_bands:  1 eigenvalues not converged
     c_bands:  1 eigenvalues not converged
     c_bands:  1 eigenvalues not converged
     c_bands:  1 eigenvalues not converged
     c_bands:  2 eigenvalues not converged
     c_bands:  1 eigenvalues not converged
     c_bands:  1 eigenvalues not converged
     c_bands:  1 eigenvalues not converged
     c_bands:  1 eigenvalues not converged
     c_bands:  1 eigenvalues not converged
     c_bands:  1 eigenvalues not converged
     c_bands:  1 eigenvalues not converged
     c_bands:  1 eigenvalues not converged
     c_bands:  1 eigenvalues not converged
     c_bands:  1 eigenvalues not converged
     c_bands:  1 eigenvalues not converged
     c_bands:  1 eigenvalues not converged
     c_bands:  1 eigenvalues not converged
     c_bands:  1 eigenvalues not converged
     c_bands:  1 eigenvalues not converged
     c_bands:  1 eigenvalues not converged
     c_bands:  1 eigenvalues not converged
     c_bands:  1 eigenvalues not converged
     c_bands:  1 eigenvalues not converged
     c_bands:  1 eigenvalues not converged
     c_bands:  1 eigenvalues not converged
     c_bands:  1 eigenvalues not converged
     c_bands:  1 eigenvalues not converged
     c_bands:  1 eigenvalues not converged
     c_bands:  1 eigenvalues not converged
     c_bands:  1 eigenvalues not converged
     c_bands:  1 eigenvalues not converged
     c_bands:  1 eigenvalues not converged
     c_bands:  1 eigenvalues not converged
     c_bands:  1 eigenvalues not converged
     c_bands:  2 eigenvalues not converged
     c_bands:  1 eigenvalues not converged
     c_bands:  1 eigenvalues not converged
     c_bands:  1 eigenvalues not converged
     c_bands:  1 eigenvalues not converged
     c_bands:  1 eigenvalues not converged
     c_bands:  1 eigenvalues not converged
     c_bands:  1 eigenvalues not converged
     c_bands:  1 eigenvalues not converged
     c_bands:  1 eigenvalues not converged
     c_bands:  1 eigenvalues not converged
     c_bands:  1 eigenvalues not converged
     c_bands:  1 eigenvalues not converged
     c_bands:  1 eigenvalues not converged
     c_bands:  1 eigenvalues not converged
     c_bands:  1 eigenvalues not converged
     c_bands:  1 eigenvalues not converged
     c_bands:  1 eigenvalues not converged
     c_bands:  1 eigenvalues not converged
     c_bands:  1 eigenvalues not converged
     c_bands:  1 eigenvalues not converged
     c_bands:  1 eigenvalues not converged
     c_bands:  1 eigenvalues not converged
     c_bands:  1 eigenvalues not converged
     c_bands:  1 eigenvalues not converged
     c_bands:  1 eigenvalues not converged
     c_bands:  1 eigenvalues not converged
     c_bands:  1 eigenvalues not converged
     c_bands:  1 eigenvalues not converged
     c_bands:  1 eigenvalues not converged
     c_bands:  1 eigenvalues not converged
     c_bands:  1 eigenvalues not converged
     c_bands:  1 eigenvalues not converged
     c_bands:  1 eigenvalues not converged
     c_bands:  1 eigenvalues not converged
     c_bands:  1 eigenvalues not converged
     c_bands:  1 eigenvalues not converged
     c_bands:  1 eigenvalues not converged
     c_bands:  1 eigenvalues not converged
     c_bands:  1 eigenvalues not converged
     c_bands:  1 eigenvalues not converged
     c_bands:  1 eigenvalues not converged
     c_bands:  1 eigenvalues not converged
     c_bands:  1 eigenvalues not converged
     c_bands:  1 eigenvalues not converged
     c_bands:  1 eigenvalues not converged
     c_bands:  1 eigenvalues not converged
     c_bands:  1 eigenvalues not converged
     c_bands:  1 eigenvalues not converged
     c_bands:  1 eigenvalues not converged
     c_bands:  1 eigenvalues not converged
     c_bands:  1 eigenvalues not converged
     c_bands:  1 eigenvalues not converged
     c_bands:  1 eigenvalues not converged
     c_bands:  1 eigenvalues not converged
     c_bands:  1 eigenvalues not converged
     c_bands:  1 eigenvalues not converged
     c_bands:  1 eigenvalues not converged
     c_bands:  1 eigenvalues not converged
     c_bands:  1 eigenvalues not converged
     c_bands:  1 eigenvalues not converged
     c_bands:  1 eigenvalues not converged
     c_bands:  1 eigenvalues not converged
     c_bands:  1 eigenvalues not converged
     c_bands:  1 eigenvalues not converged
     c_bands:  1 eigenvalues not converged
     c_bands:  1 eigenvalues not converged
     c_bands:  1 eigenvalues not converged
     c_bands:  1 eigenvalues not converged
     c_bands:  1 eigenvalues not converged
     c_bands:  1 eigenvalues not converged
     c_bands:  1 eigenvalues not converged
     c_bands:  1 eigenvalues not converged
     c_bands:  1 eigenvalues not converged
     c_bands:  1 eigenvalues not converged
     c_bands:  1 eigenvalues not converged
     c_bands:  1 eigenvalues not converged
     c_bands:  1 eigenvalues not converged
     c_bands:  1 eigenvalues not converged
     c_bands:  1 eigenvalues not converged
     c_bands:  1 eigenvalues not converged
     c_bands:  1 eigenvalues not converged
     c_bands:  1 eigenvalues not converged
     c_bands:  1 eigenvalues not converged
     c_bands:  1 eigenvalues not converged
     c_bands:  1 eigenvalues not converged
     c_bands:  1 eigenvalues not converged
     c_bands:  1 eigenvalues not converged
     c_bands:  1 eigenvalues not converged
     c_bands:  1 eigenvalues not converged
     c_bands:  1 eigenvalues not converged
     c_bands:  1 eigenvalues not converged
     c_bands:  1 eigenvalues not converged
     c_bands:  1 eigenvalues not converged
     c_bands:  1 eigenvalues not converged
     c_bands:  1 eigenvalues not converged
     c_bands:  1 eigenvalues not converged
     c_bands:  1 eigenvalues not converged
     c_bands:  1 eigenvalues not converged
     c_bands:  1 eigenvalues not converged
     c_bands:  1 eigenvalues not converged
     c_bands:  1 eigenvalues not converged
     c_bands:  1 eigenvalues not converged
     c_bands:  1 eigenvalues not converged
     c_bands:  1 eigenvalues not converged
     c_bands:  1 eigenvalues not converged
     c_bands:  1 eigenvalues not converged
     c_bands:  1 eigenvalues not converged
     c_bands:  1 eigenvalues not converged
     c_bands:  1 eigenvalues not converged
     c_bands:  1 eigenvalues not converged
     c_bands:  1 eigenvalues not converged
     c_bands:  1 eigenvalues not converged
     c_bands:  1 eigenvalues not converged
     c_bands:  1 eigenvalues not converged
     c_bands:  1 eigenvalues not converged
     c_bands:  1 eigenvalues not converged
     c_bands:  1 eigenvalues not converged
     c_bands:  1 eigenvalues not converged
     c_bands:  1 eigenvalues not converged
     c_bands:  1 eigenvalues not converged
     c_bands:  1 eigenvalues not converged
     c_bands:  1 eigenvalues not converged
     c_bands:  1 eigenvalues not converged
     c_bands:  1 eigenvalues not converged
     c_bands:  1 eigenvalues not converged
     c_bands:  1 eigenvalues not converged
     c_bands:  1 eigenvalues not converged
     c_bands:  1 eigenvalues not converged
     c_bands:  1 eigenvalues not converged
     c_bands:  1 eigenvalues not converged
     c_bands:  1 eigenvalues not converged
     c_bands:  1 eigenvalues not converged
     c_bands:  1 eigenvalues not converged
     c_bands:  1 eigenvalues not converged
     c_bands:  1 eigenvalues not converged
     c_bands:  1 eigenvalues not converged
     c_bands:  1 eigenvalues not converged
     c_bands:  1 eigenvalues not converged
     c_bands:  1 eigenvalues not converged
     c_bands:  1 eigenvalues not converged
     c_bands:  1 eigenvalues not converged
     c_bands:  1 eigenvalues not converged
     c_bands:  1 eigenvalues not converged
     c_bands:  1 eigenvalues not converged
     c_bands:  1 eigenvalues not converged
     c_bands:  1 eigenvalues not converged
     c_bands:  1 eigenvalues not converged
     c_bands:  1 eigenvalues not converged
     c_bands:  1 eigenvalues not converged
     c_bands:  1 eigenvalues not converged
     c_bands:  1 eigenvalues not converged
     c_bands:  1 eigenvalues not converged
     c_bands:  1 eigenvalues not converged
     c_bands:  1 eigenvalues not converged
     c_bands:  1 eigenvalues not converged
     c_bands:  1 eigenvalues not converged
     c_bands:  1 eigenvalues not converged
     c_bands:  1 eigenvalues not converged
     c_bands:  1 eigenvalues not converged
     c_bands:  1 eigenvalues not converged
     c_bands:  1 eigenvalues not converged
     c_bands:  1 eigenvalues not converged
     c_bands:  1 eigenvalues not converged
     c_bands:  1 eigenvalues not converged
     c_bands:  1 eigenvalues not converged
     c_bands:  1 eigenvalues not converged
     c_bands:  1 eigenvalues not converged
     c_bands:  1 eigenvalues not converged
     c_bands:  1 eigenvalues not converged
     c_bands:  1 eigenvalues not converged
     c_bands:  1 eigenvalues not converged
     c_bands:  1 eigenvalues not converged
     c_bands:  1 eigenvalues not converged
     c_bands:  1 eigenvalues not converged
     c_bands:  1 eigenvalues not converged
     c_bands:  1 eigenvalues not converged
     c_bands:  1 eigenvalues not converged
     c_bands:  1 eigenvalues not converged
     c_bands:  1 eigenvalues not converged
     c_bands:  1 eigenvalues not converged
     c_bands:  1 eigenvalues not converged
     c_bands:  1 eigenvalues not converged
     c_bands:  1 eigenvalues not converged
     c_bands:  1 eigenvalues not converged
     c_bands:  1 eigenvalues not converged
     c_bands:  1 eigenvalues not converged
     c_bands:  1 eigenvalues not converged
     c_bands:  1 eigenvalues not converged
     c_bands:  1 eigenvalues not converged
     c_bands:  1 eigenvalues not converged
     c_bands:  1 eigenvalues not converged
     c_bands:  1 eigenvalues not converged
     c_bands:  1 eigenvalues not converged
     c_bands:  1 eigenvalues not converged
     c_bands:  1 eigenvalues not converged
     c_bands:  1 eigenvalues not converged
     c_bands:  1 eigenvalues not converged
     c_bands:  1 eigenvalues not converged
     c_bands:  1 eigenvalues not converged
     c_bands:  1 eigenvalues not converged
     c_bands:  1 eigenvalues not converged
     c_bands:  1 eigenvalues not converged
     c_bands:  1 eigenvalues not converged
     c_bands:  1 eigenvalues not converged
     c_bands:  1 eigenvalues not converged
     c_bands:  1 eigenvalues not converged
     c_bands:  1 eigenvalues not converged
     c_bands:  1 eigenvalues not converged
     c_bands:  1 eigenvalues not converged
     c_bands:  1 eigenvalues not converged
     c_bands:  1 eigenvalues not converged
     c_bands:  1 eigenvalues not converged
     c_bands:  1 eigenvalues not converged
     c_bands:  1 eigenvalues not converged
     c_bands:  1 eigenvalues not converged
     c_bands:  1 eigenvalues not converged
     c_bands:  1 eigenvalues not converged
     c_bands:  1 eigenvalues not converged
     c_bands:  1 eigenvalues not converged
     c_bands:  1 eigenvalues not converged
     c_bands:  1 eigenvalues not converged
     c_bands:  1 eigenvalues not converged
     c_bands:  1 eigenvalues not converged
     c_bands:  1 eigenvalues not converged
     c_bands:  1 eigenvalues not converged
     c_bands:  1 eigenvalues not converged
     c_bands:  1 eigenvalues not converged
     c_bands:  1 eigenvalues not converged
     c_bands:  1 eigenvalues not converged
     c_bands:  1 eigenvalues not converged
     c_bands:  1 eigenvalues not converged
     c_bands:  1 eigenvalues not converged
     c_bands:  1 eigenvalues not converged
     c_bands:  1 eigenvalues not converged
     c_bands:  1 eigenvalues not converged
     c_bands:  1 eigenvalues not converged
     c_bands:  1 eigenvalues not converged
     c_bands:  1 eigenvalues not converged
     c_bands:  1 eigenvalues not converged
     c_bands:  1 eigenvalues not converged
     c_bands:  1 eigenvalues not converged
     c_bands:  1 eigenvalues not converged
     c_bands:  1 eigenvalues not converged
     c_bands:  1 eigenvalues not converged
     c_bands:  1 eigenvalues not converged
     c_bands:  1 eigenvalues not converged
     c_bands:  1 eigenvalues not converged
     c_bands:  1 eigenvalues not converged
     c_bands:  1 eigenvalues not converged
     c_bands:  1 eigenvalues not converged
     c_bands:  1 eigenvalues not converged
     c_bands:  1 eigenvalues not converged
     c_bands:  1 eigenvalues not converged
     c_bands:  1 eigenvalues not converged
     c_bands:  1 eigenvalues not converged
     c_bands:  1 eigenvalues not converged
     c_bands:  1 eigenvalues not converged
     c_bands:  1 eigenvalues not converged
     c_bands:  1 eigenvalues not converged
     c_bands:  1 eigenvalues not converged
     c_bands:  1 eigenvalues not converged
     c_bands:  1 eigenvalues not converged
     c_bands:  1 eigenvalues not converged
     c_bands:  1 eigenvalues not converged
     c_bands:  1 eigenvalues not converged
     c_bands:  1 eigenvalues not converged
     c_bands:  1 eigenvalues not converged
     c_bands:  1 eigenvalues not converged
     c_bands:  1 eigenvalues not converged
     c_bands:  1 eigenvalues not converged
     c_bands:  1 eigenvalues not converged
     c_bands:  3 eigenvalues not converged

     ethr =  2.38E-11,  avg # of iterations = 75.7

     total cpu time spent up to now is     1653.8 secs

     End of band structure calculation

     Number of k-points >= 100: set verbosity='high' to print the bands.

     the Fermi energy is    19.1207 ev

     Writing output data file La2H20.save/
 
     [dfpt_tetra]  Dos(E_F)[/Ry] :   0.2497030E+02

     La2H20 phonon                                                              

     bravais-lattice index     =            0
     lattice parameter (alat)  =       6.6631  a.u.
     unit-cell volume          =     418.3509 (a.u.)^3
     number of atoms/cell      =           22
     number of atomic types    =            2
     kinetic-energy cut-off    =      80.0000  Ry
     charge density cut-off    =     320.0000  Ry
     convergence threshold     =      1.0E-08
     beta                      =       0.7000
     number of iterations used =            4
     Exchange-correlation      = PBE ( 1  4  3  4 0 0)


     celldm(1)=    6.66311  celldm(2)=    0.99998  celldm(3)=    1.41422
     celldm(4)=    0.00000  celldm(5)=    0.00000  celldm(6)=    0.00000

     crystal axes: (cart. coord. in units of alat)
               a(1) = (  1.0000  0.0000  0.0000 )  
               a(2) = (  0.0000  1.0000  0.0000 )  
               a(3) = (  0.0000  0.0000  1.4142 )  

     reciprocal axes: (cart. coord. in units 2 pi/alat)
               b(1) = (  1.0000  0.0000  0.0000 )  
               b(2) = (  0.0000  1.0000  0.0000 )  
               b(3) = (  0.0000  0.0000  0.7071 )  


     Atoms inside the unit cell: 

     Cartesian axes

     site n.  atom      mass           positions (alat units)
        1     La 138.9000   tau(    1) = (   -0.00000    0.00000   -0.00000  )
        2     La 138.9000   tau(    2) = (    0.50000    0.49999    0.70711  )
        3     H    1.0078   tau(    3) = (    0.74113    0.49999    0.17041  )
        4     H    1.0078   tau(    4) = (    0.25887    0.49999    1.24381  )
        5     H    1.0078   tau(    5) = (    0.25887    0.49999    0.17041  )
        6     H    1.0078   tau(    6) = (    0.74113    0.49999    1.24381  )
        7     H    1.0078   tau(    7) = (    0.50000    0.74112    0.17039  )
        8     H    1.0078   tau(    8) = (    0.50000    0.25887    1.24383  )
        9     H    1.0078   tau(    9) = (    0.50000    0.25887    0.17039  )
       10     H    1.0078   tau(   10) = (    0.50000    0.74112    1.24383  )
       11     H    1.0078   tau(   11) = (    0.75908    0.00000    0.53657  )
       12     H    1.0078   tau(   12) = (    0.24092    0.00000    0.87764  )
       13     H    1.0078   tau(   13) = (    0.24092    0.00000    0.53657  )
       14     H    1.0078   tau(   14) = (    0.75908    0.00000    0.87764  )
       15     H    1.0078   tau(   15) = (    0.00000    0.75907    0.53659  )
       16     H    1.0078   tau(   16) = (    0.00000    0.24091    0.87763  )
       17     H    1.0078   tau(   17) = (    0.00000    0.24091    0.53659  )
       18     H    1.0078   tau(   18) = (    0.00000    0.75907    0.87763  )
       19     H    1.0078   tau(   19) = (    0.00000    0.49999    1.06023  )
       20     H    1.0078   tau(   20) = (   -0.00000    0.49999    0.35399  )
       21     H    1.0078   tau(   21) = (    0.50000   -0.00000    1.06021  )
       22     H    1.0078   tau(   22) = (    0.50000    0.00000    0.35401  )

     Computing dynamical matrix for 
                    q = (   0.1666667   0.1666692   0.1767763 )
 
     No symmetry!

     G cutoff =  359.8690  (   2517 G-vectors)     FFT grid: ( 40, 40, 54)
     number of k points=  3456

     PseudoPot. # 1 for La read from file:
     ./La.pbe-hgh.UPF
     MD5 check sum: 61d181712d8d9c51ac62657414fb885e
     Pseudo is Norm-conserving, Zval = 11.0
     Generated in analytical, separable form
     Using radial grid of 1253 points,  6 beta functions with: 
                l(1) =   0
                l(2) =   0
                l(3) =   1
                l(4) =   1
                l(5) =   2
                l(6) =   3

     PseudoPot. # 2 for H  read from file:
     ./H.pbe-hgh.UPF
     MD5 check sum: 50ae4f52d34cf16cdfed4bce9c5a191e
     Pseudo is Norm-conserving, Zval =  1.0
     Generated in analytical, separable form
     Using radial grid of  929 points,  0 beta functions with: 

     Mode symmetry, C_1 (1)     point group:


     Atomic displacements:
     There are  66 irreducible representations

     Representation     1      1 modes -A  To be done

     Representation     2      1 modes -A  To be done

     Representation     3      1 modes -A  To be done

     Representation     4      1 modes -A  To be done

     Representation     5      1 modes -A  To be done

     Representation     6      1 modes -A  To be done

     Representation     7      1 modes -A  To be done

     Representation     8      1 modes -A  To be done

     Representation     9      1 modes -A  To be done

     Representation    10      1 modes -A  To be done

     Representation    11      1 modes -A  To be done

     Representation    12      1 modes -A  To be done

     Representation    13      1 modes -A  To be done

     Representation    14      1 modes -A  To be done

     Representation    15      1 modes -A  To be done

     Representation    16      1 modes -A  To be done

     Representation    17      1 modes -A  To be done

     Representation    18      1 modes -A  To be done

     Representation    19      1 modes -A  To be done

     Representation    20      1 modes -A  To be done

     Representation    21      1 modes -A  To be done

     Representation    22      1 modes -A  To be done

     Representation    23      1 modes -A  To be done

     Representation    24      1 modes -A  To be done

     Representation    25      1 modes -A  To be done

     Representation    26      1 modes -A  To be done

     Representation    27      1 modes -A  To be done

     Representation    28      1 modes -A  To be done

     Representation    29      1 modes -A  To be done

     Representation    30      1 modes -A  To be done

     Representation    31      1 modes -A  To be done

     Representation    32      1 modes -A  To be done

     Representation    33      1 modes -A  To be done

     Representation    34      1 modes -A  To be done

     Representation    35      1 modes -A  To be done

     Representation    36      1 modes -A  To be done

     Representation    37      1 modes -A  To be done

     Representation    38      1 modes -A  To be done

     Representation    39      1 modes -A  To be done

     Representation    40      1 modes -A  To be done

     Representation    41      1 modes -A  To be done

     Representation    42      1 modes -A  To be done

     Representation    43      1 modes -A  To be done

     Representation    44      1 modes -A  To be done

     Representation    45      1 modes -A  To be done

     Representation    46      1 modes -A  To be done

     Representation    47      1 modes -A  To be done

     Representation    48      1 modes -A  To be done

     Representation    49      1 modes -A  To be done

     Representation    50      1 modes -A  To be done

     Representation    51      1 modes -A  To be done

     Representation    52      1 modes -A  To be done

     Representation    53      1 modes -A  To be done

     Representation    54      1 modes -A  To be done

     Representation    55      1 modes -A  To be done

     Representation    56      1 modes -A  To be done

     Representation    57      1 modes -A  To be done

     Representation    58      1 modes -A  To be done

     Representation    59      1 modes -A  To be done

     Representation    60      1 modes -A  To be done

     Representation    61      1 modes -A  To be done

     Representation    62      1 modes -A  To be done

     Representation    63      1 modes -A  To be done

     Representation    64      1 modes -A  To be done

     Representation    65      1 modes -A  To be done

     Representation    66      1 modes -A  To be done



     Alpha used in Ewald sum =   2.8000
     PHONON       : 27m 4.99s CPU    27m46.49s WALL



     Representation #  1 mode #   1

     Self-consistent Calculation

      iter #   1 total cpu time :  1775.7 secs   av.it.:   4.7
      thresh= 1.000E-02 alpha_mix =  0.700 |ddv_scf|^2 =  1.481E-05

      iter #   2 total cpu time :  1973.6 secs   av.it.:  12.4
      thresh= 3.848E-04 alpha_mix =  0.700 |ddv_scf|^2 =  2.123E-03

      iter #   3 total cpu time :  2115.2 secs   av.it.:   8.1
      thresh= 4.607E-03 alpha_mix =  0.700 |ddv_scf|^2 =  1.550E-07

      iter #   4 total cpu time :  2327.5 secs   av.it.:  13.9
      thresh= 3.936E-05 alpha_mix =  0.700 |ddv_scf|^2 =  3.149E-07

      iter #   5 total cpu time :  2509.5 secs   av.it.:  11.3
      thresh= 5.612E-05 alpha_mix =  0.700 |ddv_scf|^2 =  1.910E-08

      iter #   6 total cpu time :  2703.2 secs   av.it.:  12.4
      thresh= 1.382E-05 alpha_mix =  0.700 |ddv_scf|^2 =  9.472E-11

     End of self-consistent calculation

     Convergence has been achieved 


     Representation #  2 mode #   2

     Self-consistent Calculation

      iter #   1 total cpu time :  2824.9 secs   av.it.:   4.8
      thresh= 1.000E-02 alpha_mix =  0.700 |ddv_scf|^2 =  2.865E-05

      iter #   2 total cpu time :  3024.9 secs   av.it.:  12.3
      thresh= 5.353E-04 alpha_mix =  0.700 |ddv_scf|^2 =  4.116E-03

      iter #   3 total cpu time :  3167.1 secs   av.it.:   8.1
      thresh= 6.416E-03 alpha_mix =  0.700 |ddv_scf|^2 =  9.102E-08

      iter #   4 total cpu time :  3385.9 secs   av.it.:  14.2
      thresh= 3.017E-05 alpha_mix =  0.700 |ddv_scf|^2 =  1.247E-07

      iter #   5 total cpu time :  3573.5 secs   av.it.:  11.9
      thresh= 3.531E-05 alpha_mix =  0.700 |ddv_scf|^2 =  2.190E-08

      iter #   6 total cpu time :  3766.4 secs   av.it.:  11.9
      thresh= 1.480E-05 alpha_mix =  0.700 |ddv_scf|^2 =  9.875E-11

     End of self-consistent calculation

     Convergence has been achieved 


     Representation #  3 mode #   3

     Self-consistent Calculation

      iter #   1 total cpu time :  3884.6 secs   av.it.:   4.7
      thresh= 1.000E-02 alpha_mix =  0.700 |ddv_scf|^2 =  2.016E-06

      iter #   2 total cpu time :  4091.9 secs   av.it.:  13.0
      thresh= 1.420E-04 alpha_mix =  0.700 |ddv_scf|^2 =  2.400E-04

      iter #   3 total cpu time :  4237.7 secs   av.it.:   8.3
      thresh= 1.549E-03 alpha_mix =  0.700 |ddv_scf|^2 =  1.713E-06

      iter #   4 total cpu time :  4418.2 secs   av.it.:  11.2
      thresh= 1.309E-04 alpha_mix =  0.700 |ddv_scf|^2 =  3.883E-08

      iter #   5 total cpu time :  4616.6 secs   av.it.:  12.9
      thresh= 1.971E-05 alpha_mix =  0.700 |ddv_scf|^2 =  3.723E-09

     End of self-consistent calculation

     Convergence has been achieved 


     Representation #  4 mode #   4

     Self-consistent Calculation

      iter #   1 total cpu time :  4726.7 secs   av.it.:   4.7
      thresh= 1.000E-02 alpha_mix =  0.700 |ddv_scf|^2 =  7.982E-06

      iter #   2 total cpu time :  4929.5 secs   av.it.:  12.7
      thresh= 2.825E-04 alpha_mix =  0.700 |ddv_scf|^2 =  1.119E-03

      iter #   3 total cpu time :  5072.9 secs   av.it.:   8.2
      thresh= 3.346E-03 alpha_mix =  0.700 |ddv_scf|^2 =  8.645E-07

      iter #   4 total cpu time :  5269.0 secs   av.it.:  12.0
      thresh= 9.298E-05 alpha_mix =  0.700 |ddv_scf|^2 =  2.024E-07

      iter #   5 total cpu time :  5456.5 secs   av.it.:  11.8
      thresh= 4.499E-05 alpha_mix =  0.700 |ddv_scf|^2 =  9.541E-09

     End of self-consistent calculation

     Convergence has been achieved 


     Representation #  5 mode #   5

     Self-consistent Calculation

      iter #   1 total cpu time :  5581.2 secs   av.it.:   4.7
      thresh= 1.000E-02 alpha_mix =  0.700 |ddv_scf|^2 =  1.958E-05

      iter #   2 total cpu time :  5778.7 secs   av.it.:  12.4
      thresh= 4.425E-04 alpha_mix =  0.700 |ddv_scf|^2 =  2.812E-03

      iter #   3 total cpu time :  5923.8 secs   av.it.:   8.1
      thresh= 5.302E-03 alpha_mix =  0.700 |ddv_scf|^2 =  1.605E-07

      iter #   4 total cpu time :  6136.7 secs   av.it.:  13.8
      thresh= 4.006E-05 alpha_mix =  0.700 |ddv_scf|^2 =  4.067E-07

      iter #   5 total cpu time :  6318.8 secs   av.it.:  11.2
      thresh= 6.378E-05 alpha_mix =  0.700 |ddv_scf|^2 =  1.551E-08

      iter #   6 total cpu time :  6516.0 secs   av.it.:  12.5
      thresh= 1.246E-05 alpha_mix =  0.700 |ddv_scf|^2 =  9.013E-11

     End of self-consistent calculation

     Convergence has been achieved 


     Representation #  6 mode #   6

     Self-consistent Calculation

      iter #   1 total cpu time :  6628.8 secs   av.it.:   4.7
      thresh= 1.000E-02 alpha_mix =  0.700 |ddv_scf|^2 =  2.026E-05

      iter #   2 total cpu time :  6835.6 secs   av.it.:  12.4
      thresh= 4.501E-04 alpha_mix =  0.700 |ddv_scf|^2 =  2.912E-03

      iter #   3 total cpu time :  6981.5 secs   av.it.:   8.1
      thresh= 5.397E-03 alpha_mix =  0.700 |ddv_scf|^2 =  2.250E-07

      iter #   4 total cpu time :  7196.4 secs   av.it.:  13.6
      thresh= 4.744E-05 alpha_mix =  0.700 |ddv_scf|^2 =  5.685E-07

      iter #   5 total cpu time :  7392.2 secs   av.it.:  11.1
      thresh= 7.540E-05 alpha_mix =  0.700 |ddv_scf|^2 =  1.429E-08

      iter #   6 total cpu time :  7611.6 secs   av.it.:  12.8
      thresh= 1.195E-05 alpha_mix =  0.700 |ddv_scf|^2 =  1.017E-10

     End of self-consistent calculation

     Convergence has been achieved 


     Representation #  7 mode #   7

     Self-consistent Calculation

      iter #   1 total cpu time :  7736.6 secs   av.it.:   4.7
      thresh= 1.000E-02 alpha_mix =  0.700 |ddv_scf|^2 =  9.417E-06

      iter #   2 total cpu time :  7953.9 secs   av.it.:  12.7
      thresh= 3.069E-04 alpha_mix =  0.700 |ddv_scf|^2 =  1.315E-03

      iter #   3 total cpu time :  8111.7 secs   av.it.:   8.2
      thresh= 3.626E-03 alpha_mix =  0.700 |ddv_scf|^2 =  1.153E-06

      iter #   4 total cpu time :  8323.0 secs   av.it.:  11.9
      thresh= 1.074E-04 alpha_mix =  0.700 |ddv_scf|^2 =  2.117E-07

      iter #   5 total cpu time :  8531.4 secs   av.it.:  11.8
      thresh= 4.601E-05 alpha_mix =  0.700 |ddv_scf|^2 =  9.983E-09

     End of self-consistent calculation

     Convergence has been achieved 


     Representation #  8 mode #   8

     Self-consistent Calculation

      iter #   1 total cpu time :  8655.0 secs   av.it.:   4.8
      thresh= 1.000E-02 alpha_mix =  0.700 |ddv_scf|^2 =  2.767E-05

      iter #   2 total cpu time :  8869.9 secs   av.it.:  12.4
      thresh= 5.260E-04 alpha_mix =  0.700 |ddv_scf|^2 =  3.987E-03

      iter #   3 total cpu time :  9023.2 secs   av.it.:   8.1
      thresh= 6.314E-03 alpha_mix =  0.700 |ddv_scf|^2 =  1.095E-07

      iter #   4 total cpu time :  9261.3 secs   av.it.:  14.2
      thresh= 3.309E-05 alpha_mix =  0.700 |ddv_scf|^2 =  3.668E-07

      iter #   5 total cpu time :  9459.0 secs   av.it.:  11.3
      thresh= 6.056E-05 alpha_mix =  0.700 |ddv_scf|^2 =  1.495E-08

      iter #   6 total cpu time :  9673.1 secs   av.it.:  12.6
      thresh= 1.223E-05 alpha_mix =  0.700 |ddv_scf|^2 =  1.181E-10

     End of self-consistent calculation

     Convergence has been achieved 


     Representation #  9 mode #   9

     Self-consistent Calculation

      iter #   1 total cpu time :  9791.6 secs   av.it.:   4.6
      thresh= 1.000E-02 alpha_mix =  0.700 |ddv_scf|^2 =  3.317E-06

      iter #   2 total cpu time : 10013.2 secs   av.it.:  12.9
      thresh= 1.821E-04 alpha_mix =  0.700 |ddv_scf|^2 =  4.236E-04

      iter #   3 total cpu time : 10170.3 secs   av.it.:   8.3
      thresh= 2.058E-03 alpha_mix =  0.700 |ddv_scf|^2 =  1.759E-06

      iter #   4 total cpu time : 10369.8 secs   av.it.:  11.3
      thresh= 1.326E-04 alpha_mix =  0.700 |ddv_scf|^2 =  4.995E-08

      iter #   5 total cpu time : 10585.4 secs   av.it.:  12.7
      thresh= 2.235E-05 alpha_mix =  0.700 |ddv_scf|^2 =  4.536E-09

     End of self-consistent calculation

     Convergence has been achieved 


     Representation # 10 mode #  10

     Self-consistent Calculation

      iter #   1 total cpu time : 10707.6 secs   av.it.:   4.8
      thresh= 1.000E-02 alpha_mix =  0.700 |ddv_scf|^2 =  2.188E-05

      iter #   2 total cpu time : 10925.4 secs   av.it.:  12.5
      thresh= 4.677E-04 alpha_mix =  0.700 |ddv_scf|^2 =  3.130E-03

      iter #   3 total cpu time : 11079.6 secs   av.it.:   8.1
      thresh= 5.594E-03 alpha_mix =  0.700 |ddv_scf|^2 =  8.993E-07

      iter #   4 total cpu time : 11298.0 secs   av.it.:  12.5
      thresh= 9.483E-05 alpha_mix =  0.700 |ddv_scf|^2 =  7.072E-07

      iter #   5 total cpu time : 11495.4 secs   av.it.:  11.3
      thresh= 8.410E-05 alpha_mix =  0.700 |ddv_scf|^2 =  1.003E-08

      iter #   6 total cpu time : 11722.0 secs   av.it.:  13.1
      thresh= 1.002E-05 alpha_mix =  0.700 |ddv_scf|^2 =  1.188E-10

     End of self-consistent calculation

     Convergence has been achieved 


     Representation # 11 mode #  11

     Self-consistent Calculation

      iter #   1 total cpu time : 11846.1 secs   av.it.:   4.7
      thresh= 1.000E-02 alpha_mix =  0.700 |ddv_scf|^2 =  1.708E-05

      iter #   2 total cpu time : 12062.4 secs   av.it.:  12.4
      thresh= 4.133E-04 alpha_mix =  0.700 |ddv_scf|^2 =  2.450E-03

      iter #   3 total cpu time : 12217.0 secs   av.it.:   8.1
      thresh= 4.949E-03 alpha_mix =  0.700 |ddv_scf|^2 =  3.356E-07

      iter #   4 total cpu time : 12447.1 secs   av.it.:  13.1
      thresh= 5.793E-05 alpha_mix =  0.700 |ddv_scf|^2 =  5.786E-07

      iter #   5 total cpu time : 12645.4 secs   av.it.:  11.2
      thresh= 7.606E-05 alpha_mix =  0.700 |ddv_scf|^2 =  1.235E-08

      iter #   6 total cpu time : 12861.1 secs   av.it.:  12.8
      thresh= 1.111E-05 alpha_mix =  0.700 |ddv_scf|^2 =  9.628E-11

     End of self-consistent calculation

     Convergence has been achieved 


     Representation # 12 mode #  12

     Self-consistent Calculation

      iter #   1 total cpu time : 12987.2 secs   av.it.:   4.7
      thresh= 1.000E-02 alpha_mix =  0.700 |ddv_scf|^2 =  1.288E-05

      iter #   2 total cpu time : 13202.4 secs   av.it.:  12.5
      thresh= 3.589E-04 alpha_mix =  0.700 |ddv_scf|^2 =  1.834E-03

      iter #   3 total cpu time : 13356.6 secs   av.it.:   8.1
      thresh= 4.283E-03 alpha_mix =  0.700 |ddv_scf|^2 =  3.232E-07

      iter #   4 total cpu time : 13576.7 secs   av.it.:  13.0
      thresh= 5.685E-05 alpha_mix =  0.700 |ddv_scf|^2 =  4.331E-07

      iter #   5 total cpu time : 13774.5 secs   av.it.:  11.2
      thresh= 6.581E-05 alpha_mix =  0.700 |ddv_scf|^2 =  1.427E-08

      iter #   6 total cpu time : 13988.9 secs   av.it.:  12.8
      thresh= 1.195E-05 alpha_mix =  0.700 |ddv_scf|^2 =  1.302E-10

     End of self-consistent calculation

     Convergence has been achieved 


     Representation # 13 mode #  13

     Self-consistent Calculation

      iter #   1 total cpu time : 14110.4 secs   av.it.:   4.3
      thresh= 1.000E-02 alpha_mix =  0.700 |ddv_scf|^2 =  6.480E-07

      iter #   2 total cpu time : 14330.7 secs   av.it.:  13.3
      thresh= 8.050E-05 alpha_mix =  0.700 |ddv_scf|^2 =  6.857E-05

      iter #   3 total cpu time : 14481.8 secs   av.it.:   8.4
      thresh= 8.281E-04 alpha_mix =  0.700 |ddv_scf|^2 =  6.484E-07

      iter #   4 total cpu time : 14671.1 secs   av.it.:  11.5
      thresh= 8.052E-05 alpha_mix =  0.700 |ddv_scf|^2 =  5.407E-08

      iter #   5 total cpu time : 14873.6 secs   av.it.:  12.1
      thresh= 2.325E-05 alpha_mix =  0.700 |ddv_scf|^2 =  1.546E-09

     End of self-consistent calculation

     Convergence has been achieved 


     Representation # 14 mode #  14

     Self-consistent Calculation

      iter #   1 total cpu time : 14993.1 secs   av.it.:   4.4
      thresh= 1.000E-02 alpha_mix =  0.700 |ddv_scf|^2 =  2.013E-06

      iter #   2 total cpu time : 15208.4 secs   av.it.:  12.9
      thresh= 1.419E-04 alpha_mix =  0.700 |ddv_scf|^2 =  2.613E-04

      iter #   3 total cpu time : 15360.0 secs   av.it.:   8.2
      thresh= 1.616E-03 alpha_mix =  0.700 |ddv_scf|^2 =  6.331E-07

      iter #   4 total cpu time : 15556.7 secs   av.it.:  11.8
      thresh= 7.957E-05 alpha_mix =  0.700 |ddv_scf|^2 =  7.501E-08

      iter #   5 total cpu time : 15760.2 secs   av.it.:  12.1
      thresh= 2.739E-05 alpha_mix =  0.700 |ddv_scf|^2 =  4.157E-09

     End of self-consistent calculation

     Convergence has been achieved 


     Representation # 15 mode #  15

     Self-consistent Calculation

      iter #   1 total cpu time : 15878.3 secs   av.it.:   4.8
      thresh= 1.000E-02 alpha_mix =  0.700 |ddv_scf|^2 =  1.567E-05

      iter #   2 total cpu time : 16089.3 secs   av.it.:  12.6
      thresh= 3.958E-04 alpha_mix =  0.700 |ddv_scf|^2 =  2.198E-03

      iter #   3 total cpu time : 16238.8 secs   av.it.:   8.2
      thresh= 4.688E-03 alpha_mix =  0.700 |ddv_scf|^2 =  1.731E-06

      iter #   4 total cpu time : 16441.8 secs   av.it.:  11.9
      thresh= 1.316E-04 alpha_mix =  0.700 |ddv_scf|^2 =  3.341E-07

      iter #   5 total cpu time : 16644.4 secs   av.it.:  11.7
      thresh= 5.780E-05 alpha_mix =  0.700 |ddv_scf|^2 =  8.922E-09

     End of self-consistent calculation

     Convergence has been achieved 


     Representation # 16 mode #  16

     Self-consistent Calculation

      iter #   1 total cpu time : 16819.6 secs   av.it.:   8.5
      thresh= 1.000E-02 alpha_mix =  0.700 |ddv_scf|^2 =  2.298E-04

      iter #   2 total cpu time : 17039.6 secs   av.it.:  12.9
      thresh= 1.516E-03 alpha_mix =  0.700 |ddv_scf|^2 =  3.123E-02

      iter #   3 total cpu time : 17206.5 secs   av.it.:   9.1
      thresh= 1.000E-02 alpha_mix =  0.700 |ddv_scf|^2 =  4.950E-05

      iter #   4 total cpu time : 17407.8 secs   av.it.:  11.9
      thresh= 7.036E-04 alpha_mix =  0.700 |ddv_scf|^2 =  6.208E-06

      iter #   5 total cpu time : 17615.5 secs   av.it.:  12.1
      thresh= 2.492E-04 alpha_mix =  0.700 |ddv_scf|^2 =  4.119E-07

      iter #   6 total cpu time : 17823.9 secs   av.it.:  12.7
      thresh= 6.418E-05 alpha_mix =  0.700 |ddv_scf|^2 =  5.166E-09

     End of self-consistent calculation

     Convergence has been achieved 


     Representation # 17 mode #  17

     Self-consistent Calculation

      iter #   1 total cpu time : 17940.7 secs   av.it.:   4.5
      thresh= 1.000E-02 alpha_mix =  0.700 |ddv_scf|^2 =  1.827E-06

      iter #   2 total cpu time : 18168.0 secs   av.it.:  13.1
      thresh= 1.352E-04 alpha_mix =  0.700 |ddv_scf|^2 =  2.014E-04

      iter #   3 total cpu time : 18327.9 secs   av.it.:   8.4
      thresh= 1.419E-03 alpha_mix =  0.700 |ddv_scf|^2 =  2.441E-06

      iter #   4 total cpu time : 18524.7 secs   av.it.:  11.1
      thresh= 1.562E-04 alpha_mix =  0.700 |ddv_scf|^2 =  2.959E-08

      iter #   5 total cpu time : 18741.9 secs   av.it.:  12.9
      thresh= 1.720E-05 alpha_mix =  0.700 |ddv_scf|^2 =  3.058E-09

     End of self-consistent calculation

     Convergence has been achieved 


     Representation # 18 mode #  18

     Self-consistent Calculation

      iter #   1 total cpu time : 18922.4 secs   av.it.:   8.7
      thresh= 1.000E-02 alpha_mix =  0.700 |ddv_scf|^2 =  1.161E-03

      iter #   2 total cpu time : 19139.4 secs   av.it.:  12.7
      thresh= 3.407E-03 alpha_mix =  0.700 |ddv_scf|^2 =  1.613E-01

      iter #   3 total cpu time : 19330.5 secs   av.it.:  10.4
      thresh= 1.000E-02 alpha_mix =  0.700 |ddv_scf|^2 =  2.293E-04

      iter #   4 total cpu time : 19530.2 secs   av.it.:  11.4
      thresh= 1.514E-03 alpha_mix =  0.700 |ddv_scf|^2 =  1.486E-05

      iter #   5 total cpu time : 19733.0 secs   av.it.:  11.8
      thresh= 3.855E-04 alpha_mix =  0.700 |ddv_scf|^2 =  4.639E-07

      iter #   6 total cpu time : 19952.3 secs   av.it.:  12.9
      thresh= 6.811E-05 alpha_mix =  0.700 |ddv_scf|^2 =  2.376E-09

     End of self-consistent calculation

     Convergence has been achieved 


     Representation # 19 mode #  19

     Self-consistent Calculation

      iter #   1 total cpu time : 20073.0 secs   av.it.:   4.8
      thresh= 1.000E-02 alpha_mix =  0.700 |ddv_scf|^2 =  2.227E-06

      iter #   2 total cpu time : 20296.7 secs   av.it.:  13.1
      thresh= 1.492E-04 alpha_mix =  0.700 |ddv_scf|^2 =  2.412E-04

      iter #   3 total cpu time : 20454.2 secs   av.it.:   8.4
      thresh= 1.553E-03 alpha_mix =  0.700 |ddv_scf|^2 =  3.325E-06

      iter #   4 total cpu time : 20649.8 secs   av.it.:  11.0
      thresh= 1.824E-04 alpha_mix =  0.700 |ddv_scf|^2 =  2.836E-08

      iter #   5 total cpu time : 20874.0 secs   av.it.:  13.0
      thresh= 1.684E-05 alpha_mix =  0.700 |ddv_scf|^2 =  2.998E-09

     End of self-consistent calculation

     Convergence has been achieved 


     Representation # 20 mode #  20

     Self-consistent Calculation

      iter #   1 total cpu time : 20995.1 secs   av.it.:   4.7
      thresh= 1.000E-02 alpha_mix =  0.700 |ddv_scf|^2 =  1.452E-05

      iter #   2 total cpu time : 21211.7 secs   av.it.:  12.4
      thresh= 3.810E-04 alpha_mix =  0.700 |ddv_scf|^2 =  2.088E-03

      iter #   3 total cpu time : 21368.2 secs   av.it.:   8.1
      thresh= 4.569E-03 alpha_mix =  0.700 |ddv_scf|^2 =  1.679E-07

      iter #   4 total cpu time : 21598.9 secs   av.it.:  13.7
      thresh= 4.098E-05 alpha_mix =  0.700 |ddv_scf|^2 =  3.534E-07

      iter #   5 total cpu time : 21798.7 secs   av.it.:  11.2
      thresh= 5.945E-05 alpha_mix =  0.700 |ddv_scf|^2 =  1.774E-08

      iter #   6 total cpu time : 22012.5 secs   av.it.:  12.4
      thresh= 1.332E-05 alpha_mix =  0.700 |ddv_scf|^2 =  1.153E-10

     End of self-consistent calculation

     Convergence has been achieved 


     Representation # 21 mode #  21

     Self-consistent Calculation

      iter #   1 total cpu time : 22132.5 secs   av.it.:   4.8
      thresh= 1.000E-02 alpha_mix =  0.700 |ddv_scf|^2 =  2.652E-05

      iter #   2 total cpu time : 22339.9 secs   av.it.:  12.4
      thresh= 5.150E-04 alpha_mix =  0.700 |ddv_scf|^2 =  3.822E-03

      iter #   3 total cpu time : 22488.8 secs   av.it.:   8.1
      thresh= 6.182E-03 alpha_mix =  0.700 |ddv_scf|^2 =  1.049E-07

      iter #   4 total cpu time : 22718.6 secs   av.it.:  14.2
      thresh= 3.239E-05 alpha_mix =  0.700 |ddv_scf|^2 =  3.505E-07

      iter #   5 total cpu time : 22908.7 secs   av.it.:  11.3
      thresh= 5.920E-05 alpha_mix =  0.700 |ddv_scf|^2 =  1.450E-08

      iter #   6 total cpu time : 23116.0 secs   av.it.:  12.5
      thresh= 1.204E-05 alpha_mix =  0.700 |ddv_scf|^2 =  8.117E-11

     End of self-consistent calculation

     Convergence has been achieved 


     Representation # 22 mode #  22

     Self-consistent Calculation

      iter #   1 total cpu time : 23238.1 secs   av.it.:   4.5
      thresh= 1.000E-02 alpha_mix =  0.700 |ddv_scf|^2 =  5.101E-07

      iter #   2 total cpu time : 23464.7 secs   av.it.:  13.4
      thresh= 7.142E-05 alpha_mix =  0.700 |ddv_scf|^2 =  4.925E-05

      iter #   3 total cpu time : 23621.2 secs   av.it.:   8.4
      thresh= 7.018E-04 alpha_mix =  0.700 |ddv_scf|^2 =  6.459E-07

      iter #   4 total cpu time : 23821.3 secs   av.it.:  11.6
      thresh= 8.037E-05 alpha_mix =  0.700 |ddv_scf|^2 =  5.364E-08

      iter #   5 total cpu time : 24027.0 secs   av.it.:  12.0
      thresh= 2.316E-05 alpha_mix =  0.700 |ddv_scf|^2 =  1.446E-09

     End of self-consistent calculation

     Convergence has been achieved 


     Representation # 23 mode #  23

     Self-consistent Calculation

      iter #   1 total cpu time : 24147.7 secs   av.it.:   4.6
      thresh= 1.000E-02 alpha_mix =  0.700 |ddv_scf|^2 =  5.569E-06

      iter #   2 total cpu time : 24365.4 secs   av.it.:  12.8
      thresh= 2.360E-04 alpha_mix =  0.700 |ddv_scf|^2 =  7.519E-04

      iter #   3 total cpu time : 24523.6 secs   av.it.:   8.2
      thresh= 2.742E-03 alpha_mix =  0.700 |ddv_scf|^2 =  1.480E-06

      iter #   4 total cpu time : 24725.4 secs   av.it.:  11.5
      thresh= 1.216E-04 alpha_mix =  0.700 |ddv_scf|^2 =  9.247E-08

      iter #   5 total cpu time : 24937.6 secs   av.it.:  12.2
      thresh= 3.041E-05 alpha_mix =  0.700 |ddv_scf|^2 =  7.153E-09

     End of self-consistent calculation

     Convergence has been achieved 


     Representation # 24 mode #  24

     Self-consistent Calculation

      iter #   1 total cpu time : 25062.2 secs   av.it.:   4.7
      thresh= 1.000E-02 alpha_mix =  0.700 |ddv_scf|^2 =  2.240E-06

      iter #   2 total cpu time : 25286.3 secs   av.it.:  13.1
      thresh= 1.497E-04 alpha_mix =  0.700 |ddv_scf|^2 =  2.488E-04

      iter #   3 total cpu time : 25445.8 secs   av.it.:   8.4
      thresh= 1.577E-03 alpha_mix =  0.700 |ddv_scf|^2 =  2.939E-06

      iter #   4 total cpu time : 25640.3 secs   av.it.:  11.1
      thresh= 1.714E-04 alpha_mix =  0.700 |ddv_scf|^2 =  3.096E-08

      iter #   5 total cpu time : 25862.4 secs   av.it.:  12.9
      thresh= 1.760E-05 alpha_mix =  0.700 |ddv_scf|^2 =  3.435E-09

     End of self-consistent calculation

     Convergence has been achieved 


     Representation # 25 mode #  25

     Self-consistent Calculation

      iter #   1 total cpu time : 25985.3 secs   av.it.:   4.7
      thresh= 1.000E-02 alpha_mix =  0.700 |ddv_scf|^2 =  1.446E-05

      iter #   2 total cpu time : 26204.5 secs   av.it.:  12.5
      thresh= 3.803E-04 alpha_mix =  0.700 |ddv_scf|^2 =  2.049E-03

      iter #   3 total cpu time : 26361.5 secs   av.it.:   8.1
      thresh= 4.527E-03 alpha_mix =  0.700 |ddv_scf|^2 =  8.659E-07

      iter #   4 total cpu time : 26573.6 secs   av.it.:  12.2
      thresh= 9.306E-05 alpha_mix =  0.700 |ddv_scf|^2 =  4.336E-07

      iter #   5 total cpu time : 26771.3 secs   av.it.:  11.5
      thresh= 6.585E-05 alpha_mix =  0.700 |ddv_scf|^2 =  9.537E-09

     End of self-consistent calculation

     Convergence has been achieved 


     Representation # 26 mode #  26

     Self-consistent Calculation

      iter #   1 total cpu time : 26896.4 secs   av.it.:   4.8
      thresh= 1.000E-02 alpha_mix =  0.700 |ddv_scf|^2 =  1.297E-05

      iter #   2 total cpu time : 27109.1 secs   av.it.:  12.6
      thresh= 3.601E-04 alpha_mix =  0.700 |ddv_scf|^2 =  1.826E-03

      iter #   3 total cpu time : 27262.3 secs   av.it.:   8.2
      thresh= 4.273E-03 alpha_mix =  0.700 |ddv_scf|^2 =  9.495E-07

      iter #   4 total cpu time : 27472.0 secs   av.it.:  12.1
      thresh= 9.744E-05 alpha_mix =  0.700 |ddv_scf|^2 =  3.718E-07

      iter #   5 total cpu time : 27669.6 secs   av.it.:  11.7
      thresh= 6.098E-05 alpha_mix =  0.700 |ddv_scf|^2 =  1.265E-08

      iter #   6 total cpu time : 27884.9 secs   av.it.:  12.9
      thresh= 1.125E-05 alpha_mix =  0.700 |ddv_scf|^2 =  1.205E-10

     End of self-consistent calculation

[...]

      iter #   3 total cpu time :136444.8 secs   av.it.:  12.5
      thresh= 4.342E-05 alpha_mix =  0.700 |ddv_scf|^2 =  8.182E-09

     End of self-consistent calculation

     Convergence has been achieved 


     Representation # 58 mode #  58

     Self-consistent Calculation

      iter #   1 total cpu time :136481.4 secs   av.it.:   4.5
      thresh= 1.000E-02 alpha_mix =  0.700 |ddv_scf|^2 =  3.693E-07

      iter #   2 total cpu time :136557.0 secs   av.it.:  13.5
      thresh= 6.077E-05 alpha_mix =  0.700 |ddv_scf|^2 =  1.098E-06

      iter #   3 total cpu time :136625.1 secs   av.it.:  11.7
      thresh= 1.048E-04 alpha_mix =  0.700 |ddv_scf|^2 =  6.233E-09

     End of self-consistent calculation

     Convergence has been achieved 


     Representation # 59 mode #  59

     Self-consistent Calculation

      iter #   1 total cpu time :136660.5 secs   av.it.:   4.5
      thresh= 1.000E-02 alpha_mix =  0.700 |ddv_scf|^2 =  3.693E-07

      iter #   2 total cpu time :136735.4 secs   av.it.:  13.4
      thresh= 6.077E-05 alpha_mix =  0.700 |ddv_scf|^2 =  1.099E-06

      iter #   3 total cpu time :136803.2 secs   av.it.:  11.7
      thresh= 1.048E-04 alpha_mix =  0.700 |ddv_scf|^2 =  6.237E-09

     End of self-consistent calculation

     Convergence has been achieved 


     Representation # 60 mode #  60

     Self-consistent Calculation

      iter #   1 total cpu time :136839.1 secs   av.it.:   4.2
      thresh= 1.000E-02 alpha_mix =  0.700 |ddv_scf|^2 =  2.790E-07

      iter #   2 total cpu time :136913.8 secs   av.it.:  13.3
      thresh= 5.282E-05 alpha_mix =  0.700 |ddv_scf|^2 =  8.388E-07

      iter #   3 total cpu time :136981.2 secs   av.it.:  11.7
      thresh= 9.159E-05 alpha_mix =  0.700 |ddv_scf|^2 =  3.208E-09

     End of self-consistent calculation

     Convergence has been achieved 


     Representation # 61 mode #  61

     Self-consistent Calculation

      iter #   1 total cpu time :137033.9 secs   av.it.:   8.1
      thresh= 1.000E-02 alpha_mix =  0.700 |ddv_scf|^2 =  2.867E-05

      iter #   2 total cpu time :137108.7 secs   av.it.:  13.5
      thresh= 5.355E-04 alpha_mix =  0.700 |ddv_scf|^2 =  8.907E-05

      iter #   3 total cpu time :137175.5 secs   av.it.:  11.6
      thresh= 9.438E-04 alpha_mix =  0.700 |ddv_scf|^2 =  3.955E-07

      iter #   4 total cpu time :137246.3 secs   av.it.:  12.6
      thresh= 6.289E-05 alpha_mix =  0.700 |ddv_scf|^2 =  5.738E-09

     End of self-consistent calculation

     Convergence has been achieved 


     Representation # 62 mode #  62

     Self-consistent Calculation

      iter #   1 total cpu time :137281.2 secs   av.it.:   4.2
      thresh= 1.000E-02 alpha_mix =  0.700 |ddv_scf|^2 =  3.105E-07

      iter #   2 total cpu time :137356.8 secs   av.it.:  13.6
      thresh= 5.572E-05 alpha_mix =  0.700 |ddv_scf|^2 =  7.734E-07

      iter #   3 total cpu time :137425.4 secs   av.it.:  12.0
      thresh= 8.794E-05 alpha_mix =  0.700 |ddv_scf|^2 =  1.149E-08

      iter #   4 total cpu time :137497.1 secs   av.it.:  12.7
      thresh= 1.072E-05 alpha_mix =  0.700 |ddv_scf|^2 =  2.714E-10

     End of self-consistent calculation

     Convergence has been achieved 


     Representation # 63 mode #  63

     Self-consistent Calculation

      iter #   1 total cpu time :137532.7 secs   av.it.:   4.3
      thresh= 1.000E-02 alpha_mix =  0.700 |ddv_scf|^2 =  4.128E-07

      iter #   2 total cpu time :137606.7 secs   av.it.:  13.4
      thresh= 6.425E-05 alpha_mix =  0.700 |ddv_scf|^2 =  1.270E-06

      iter #   3 total cpu time :137674.9 secs   av.it.:  11.7
      thresh= 1.127E-04 alpha_mix =  0.700 |ddv_scf|^2 =  4.780E-09

     End of self-consistent calculation

     Convergence has been achieved 


     Representation # 64 mode #  64

     Self-consistent Calculation

      iter #   1 total cpu time :137710.4 secs   av.it.:   4.3
      thresh= 1.000E-02 alpha_mix =  0.700 |ddv_scf|^2 =  4.060E-07

      iter #   2 total cpu time :137785.9 secs   av.it.:  13.4
      thresh= 6.371E-05 alpha_mix =  0.700 |ddv_scf|^2 =  1.236E-06

      iter #   3 total cpu time :137854.1 secs   av.it.:  11.7
      thresh= 1.112E-04 alpha_mix =  0.700 |ddv_scf|^2 =  5.307E-09

     End of self-consistent calculation

     Convergence has been achieved 


     Representation # 65 mode #  65

     Self-consistent Calculation

      iter #   1 total cpu time :137890.2 secs   av.it.:   4.5
      thresh= 1.000E-02 alpha_mix =  0.700 |ddv_scf|^2 =  3.693E-07

      iter #   2 total cpu time :137966.1 secs   av.it.:  13.5
      thresh= 6.077E-05 alpha_mix =  0.700 |ddv_scf|^2 =  1.098E-06

      iter #   3 total cpu time :138034.8 secs   av.it.:  11.7
      thresh= 1.048E-04 alpha_mix =  0.700 |ddv_scf|^2 =  6.233E-09

     End of self-consistent calculation

     Convergence has been achieved 


     Representation # 66 mode #  66

     Self-consistent Calculation

      iter #   1 total cpu time :138088.3 secs   av.it.:   8.1
      thresh= 1.000E-02 alpha_mix =  0.700 |ddv_scf|^2 =  2.867E-05

      iter #   2 total cpu time :138165.2 secs   av.it.:  13.5
      thresh= 5.354E-04 alpha_mix =  0.700 |ddv_scf|^2 =  8.901E-05

      iter #   3 total cpu time :138234.1 secs   av.it.:  11.6
      thresh= 9.434E-04 alpha_mix =  0.700 |ddv_scf|^2 =  3.968E-07

      iter #   4 total cpu time :138306.3 secs   av.it.:  12.6
      thresh= 6.300E-05 alpha_mix =  0.700 |ddv_scf|^2 =  5.696E-09

     End of self-consistent calculation

     Convergence has been achieved 
 
     Number of q in the star =    2
     List of q in the star:
          1  -0.500000000  -0.500007564   0.176776320
          2   0.500000000   0.500007564  -0.176776320

     Diagonalizing the dynamical matrix

     q = (   -0.500000000  -0.500007564   0.176776320 ) 

 **************************************************************************
     freq (    1) =     -49.723640 [THz] =   -1658.602085 [cm-1]
     freq (    2) =     -48.877882 [THz] =   -1630.390652 [cm-1]
     freq (    3) =     -45.429764 [THz] =   -1515.373826 [cm-1]
     freq (    4) =     -41.734628 [THz] =   -1392.117344 [cm-1]
     freq (    5) =     -13.169778 [THz] =    -439.296505 [cm-1]
     freq (    6) =     -12.697028 [THz] =    -423.527253 [cm-1]
     freq (    7) =      -9.429199 [THz] =    -314.524240 [cm-1]
     freq (    8) =      -6.635431 [THz] =    -221.334149 [cm-1]
     freq (    9) =      -3.971108 [THz] =    -132.461895 [cm-1]
     freq (   10) =      -2.778097 [THz] =     -92.667350 [cm-1]
     freq (   11) =      10.018779 [THz] =     334.190501 [cm-1]
     freq (   12) =      10.975549 [THz] =     366.104908 [cm-1]
     freq (   13) =      12.312426 [THz] =     410.698331 [cm-1]
     freq (   14) =      12.680668 [THz] =     422.981570 [cm-1]
     freq (   15) =      13.083246 [THz] =     436.410117 [cm-1]
     freq (   16) =      13.948990 [THz] =     465.288222 [cm-1]
     freq (   17) =      14.778291 [THz] =     492.950733 [cm-1]
     freq (   18) =      15.449678 [THz] =     515.345797 [cm-1]
     freq (   19) =      24.266513 [THz] =     809.443733 [cm-1]
     freq (   20) =      24.397891 [THz] =     813.826047 [cm-1]
     freq (   21) =      27.144492 [THz] =     905.442802 [cm-1]
     freq (   22) =      29.474097 [THz] =     983.150045 [cm-1]
     freq (   23) =      29.660099 [THz] =     989.354399 [cm-1]
     freq (   24) =      29.835469 [THz] =     995.204127 [cm-1]
     freq (   25) =      29.864879 [THz] =     996.185139 [cm-1]
     freq (   26) =      30.868387 [THz] =    1029.658565 [cm-1]
     freq (   27) =      33.312036 [THz] =    1111.169922 [cm-1]
     freq (   28) =      33.422057 [THz] =    1114.839822 [cm-1]
     freq (   29) =      33.566803 [THz] =    1119.668017 [cm-1]
     freq (   30) =      34.136370 [THz] =    1138.666739 [cm-1]
     freq (   31) =      34.456148 [THz] =    1149.333375 [cm-1]
     freq (   32) =      34.773262 [THz] =    1159.911162 [cm-1]
     freq (   33) =      35.340092 [THz] =    1178.818586 [cm-1]
     freq (   34) =      36.408958 [THz] =    1214.472121 [cm-1]
     freq (   35) =      37.100871 [THz] =    1237.551841 [cm-1]
     freq (   36) =      37.555387 [THz] =    1252.712859 [cm-1]
     freq (   37) =      38.381392 [THz] =    1280.265441 [cm-1]
     freq (   38) =      39.199694 [THz] =    1307.561040 [cm-1]
     freq (   39) =      39.525393 [THz] =    1318.425199 [cm-1]
     freq (   40) =      39.824582 [THz] =    1328.405056 [cm-1]
     freq (   41) =      40.015679 [THz] =    1334.779374 [cm-1]
     freq (   42) =      40.368699 [THz] =    1346.554864 [cm-1]
     freq (   43) =      40.719836 [THz] =    1358.267511 [cm-1]
     freq (   44) =      41.053011 [THz] =    1369.381056 [cm-1]
     freq (   45) =      41.185385 [THz] =    1373.796566 [cm-1]
     freq (   46) =      41.651119 [THz] =    1389.331792 [cm-1]
     freq (   47) =      41.780053 [THz] =    1393.632564 [cm-1]
     freq (   48) =      41.883532 [THz] =    1397.084242 [cm-1]
     freq (   49) =      42.734199 [THz] =    1425.459451 [cm-1]
     freq (   50) =      42.976810 [THz] =    1433.552089 [cm-1]
     freq (   51) =      46.550039 [THz] =    1552.742150 [cm-1]
     freq (   52) =      46.809644 [THz] =    1561.401661 [cm-1]
     freq (   53) =      47.403863 [THz] =    1581.222680 [cm-1]
     freq (   54) =      47.510262 [THz] =    1584.771750 [cm-1]
     freq (   55) =      48.341301 [THz] =    1612.492233 [cm-1]
     freq (   56) =      48.514213 [THz] =    1618.259941 [cm-1]
     freq (   57) =      54.084611 [THz] =    1804.068440 [cm-1]
     freq (   58) =      55.024423 [THz] =    1835.417171 [cm-1]
     freq (   59) =      63.678615 [THz] =    2124.089954 [cm-1]
     freq (   60) =      64.439477 [THz] =    2149.469597 [cm-1]
     freq (   61) =      65.185324 [THz] =    2174.348371 [cm-1]
     freq (   62) =      67.311703 [THz] =    2245.276715 [cm-1]
     freq (   63) =      71.099674 [THz] =    2371.629833 [cm-1]
     freq (   64) =      72.285316 [THz] =    2411.178609 [cm-1]
     freq (   65) =      78.962149 [THz] =    2633.893770 [cm-1]
     freq (   66) =      79.262201 [THz] =    2643.902448 [cm-1]
 **************************************************************************

     Mode symmetry, C_2v (mm2)  point group:

     freq (  1 -  1) =      -1658.6  [cm-1]   --> A_2  D_2  S_2      
     freq (  2 -  2) =      -1630.4  [cm-1]   --> A_1  D_1  S_1      
     freq (  3 -  3) =      -1515.4  [cm-1]   --> B_1  D_3  S_3      
     freq (  4 -  4) =      -1392.1  [cm-1]   --> B_2  D_4  S_4      
     freq (  5 -  5) =       -439.3  [cm-1]   --> A_1  D_1  S_1      
     freq (  6 -  6) =       -423.5  [cm-1]   --> A_2  D_2  S_2      
     freq (  7 -  7) =       -314.5  [cm-1]   --> B_2  D_4  S_4      
     freq (  8 -  8) =       -221.3  [cm-1]   --> B_1  D_3  S_3      
     freq (  9 -  9) =       -132.5  [cm-1]   --> A_1  D_1  S_1      
     freq ( 10 - 10) =        -92.7  [cm-1]   --> A_2  D_2  S_2      
     freq ( 11 - 11) =        334.2  [cm-1]   --> A_1  D_1  S_1      
     freq ( 12 - 12) =        366.1  [cm-1]   --> A_2  D_2  S_2      
     freq ( 13 - 13) =        410.7  [cm-1]   --> B_2  D_4  S_4      
     freq ( 14 - 14) =        423.0  [cm-1]   --> B_1  D_3  S_3      
     freq ( 15 - 15) =        436.4  [cm-1]   --> B_2  D_4  S_4      
     freq ( 16 - 16) =        465.3  [cm-1]   --> B_1  D_3  S_3      
     freq ( 17 - 17) =        493.0  [cm-1]   --> B_1  D_3  S_3      
     freq ( 18 - 18) =        515.3  [cm-1]   --> B_2  D_4  S_4      
     freq ( 19 - 19) =        809.4  [cm-1]   --> A_1  D_1  S_1      
     freq ( 20 - 20) =        813.8  [cm-1]   --> A_2  D_2  S_2      
     freq ( 21 - 21) =        905.4  [cm-1]   --> B_2  D_4  S_4      
     freq ( 22 - 22) =        983.2  [cm-1]   --> A_1  D_1  S_1      
     freq ( 23 - 23) =        989.4  [cm-1]   --> A_2  D_2  S_2      
     freq ( 24 - 24) =        995.2  [cm-1]   --> A_1  D_1  S_1      
     freq ( 25 - 25) =        996.2  [cm-1]   --> A_2  D_2  S_2      
     freq ( 26 - 26) =       1029.7  [cm-1]   --> B_1  D_3  S_3      
     freq ( 27 - 27) =       1111.2  [cm-1]   --> A_1  D_1  S_1      
     freq ( 28 - 28) =       1114.8  [cm-1]   --> B_1  D_3  S_3      
     freq ( 29 - 29) =       1119.7  [cm-1]   --> A_2  D_2  S_2      
     freq ( 30 - 30) =       1138.7  [cm-1]   --> B_1  D_3  S_3      
     freq ( 31 - 31) =       1149.3  [cm-1]   --> B_2  D_4  S_4      
     freq ( 32 - 32) =       1159.9  [cm-1]   --> A_1  D_1  S_1      
     freq ( 33 - 33) =       1178.8  [cm-1]   --> A_2  D_2  S_2      
     freq ( 34 - 34) =       1214.5  [cm-1]   --> B_2  D_4  S_4      
     freq ( 35 - 35) =       1237.6  [cm-1]   --> B_2  D_4  S_4      
     freq ( 36 - 36) =       1252.7  [cm-1]   --> B_1  D_3  S_3      
     freq ( 37 - 37) =       1280.3  [cm-1]   --> B_2  D_4  S_4      
     freq ( 38 - 38) =       1307.6  [cm-1]   --> B_1  D_3  S_3      
     freq ( 39 - 39) =       1318.4  [cm-1]   --> A_2  D_2  S_2      
     freq ( 40 - 40) =       1328.4  [cm-1]   --> A_1  D_1  S_1      
     freq ( 41 - 41) =       1334.8  [cm-1]   --> B_1  D_3  S_3      
     freq ( 42 - 42) =       1346.6  [cm-1]   --> B_2  D_4  S_4      
     freq ( 43 - 43) =       1358.3  [cm-1]   --> B_1  D_3  S_3      
     freq ( 44 - 44) =       1369.4  [cm-1]   --> A_2  D_2  S_2      
     freq ( 45 - 45) =       1373.8  [cm-1]   --> A_1  D_1  S_1      
     freq ( 46 - 46) =       1389.3  [cm-1]   --> A_2  D_2  S_2      
     freq ( 47 - 47) =       1393.6  [cm-1]   --> B_2  D_4  S_4      
     freq ( 48 - 48) =       1397.1  [cm-1]   --> A_1  D_1  S_1      
     freq ( 49 - 49) =       1425.5  [cm-1]   --> A_2  D_2  S_2      
     freq ( 50 - 50) =       1433.6  [cm-1]   --> A_1  D_1  S_1      
     freq ( 51 - 51) =       1552.7  [cm-1]   --> B_2  D_4  S_4      
     freq ( 52 - 52) =       1561.4  [cm-1]   --> B_1  D_3  S_3      
     freq ( 53 - 53) =       1581.2  [cm-1]   --> A_1  D_1  S_1      
     freq ( 54 - 54) =       1584.8  [cm-1]   --> A_2  D_2  S_2      
     freq ( 55 - 55) =       1612.5  [cm-1]   --> A_2  D_2  S_2      
     freq ( 56 - 56) =       1618.3  [cm-1]   --> A_1  D_1  S_1      
     freq ( 57 - 57) =       1804.1  [cm-1]   --> B_2  D_4  S_4      
     freq ( 58 - 58) =       1835.4  [cm-1]   --> B_1  D_3  S_3      
     freq ( 59 - 59) =       2124.1  [cm-1]   --> B_2  D_4  S_4      
     freq ( 60 - 60) =       2149.5  [cm-1]   --> A_1  D_1  S_1      
     freq ( 61 - 61) =       2174.3  [cm-1]   --> A_2  D_2  S_2      
     freq ( 62 - 62) =       2245.3  [cm-1]   --> B_1  D_3  S_3      
     freq ( 63 - 63) =       2371.6  [cm-1]   --> B_2  D_4  S_4      
     freq ( 64 - 64) =       2411.2  [cm-1]   --> B_1  D_3  S_3      
     freq ( 65 - 65) =       2633.9  [cm-1]   --> A_1  D_1  S_1      
     freq ( 66 - 66) =       2643.9  [cm-1]   --> A_2  D_2  S_2      
 
     init_run     :      0.37s CPU      0.39s WALL (       4 calls)
     electrons    :   4184.93s CPU   4281.75s WALL (       4 calls)

     Called by init_run:
     wfcinit      :      0.00s CPU      0.02s WALL (       4 calls)
     potinit      :      0.02s CPU      0.02s WALL (       4 calls)
     hinit0       :      0.29s CPU      0.29s WALL (       4 calls)

     Called by electrons:
     c_bands      :   4178.01s CPU   4274.81s WALL (       4 calls)
     v_of_rho     :      0.02s CPU      0.02s WALL (       5 calls)

     Called by c_bands:
     init_us_2    :    251.95s CPU    274.87s WALL ( 1586316 calls)
     cegterg      :   4036.10s CPU   4113.19s WALL (   36572 calls)

     Called by sum_band:

     Called by *egterg:
     h_psi        :  98712.81s CPU 101391.06s WALL (26397251 calls)
     g_psi        :      6.97s CPU      7.13s WALL (  673714 calls)
     cdiaghg      :   1667.62s CPU   1691.32s WALL (  682378 calls)

     Called by h_psi:
     h_psi:pot    :  98547.90s CPU 101218.98s WALL (26397251 calls)
     h_psi:calbec :   3691.64s CPU   3790.88s WALL (26397251 calls)
     vloc_psi     :  93124.13s CPU  95654.44s WALL (26397251 calls)
     add_vuspsi   :   1605.43s CPU   1649.04s WALL (26397251 calls)

     General routines
     calbec       :   5623.71s CPU   5778.90s WALL (53262520 calls)
     fft          :      2.39s CPU      2.56s WALL (   12248 calls)
     ffts         :     67.36s CPU     72.84s WALL (  303270 calls)
     fftw         : 108607.02s CPU 111827.06s WALL (******** calls)
     davcio       :    318.55s CPU   1503.05s WALL ( 6460782 calls)
 
     Parallel routines
     fft_scatt_xy :   7100.85s CPU   7287.61s WALL (******** calls)
     fft_scatt_yz :  31195.54s CPU  32204.88s WALL (******** calls)
 
     PHONON       :     1d   12h59m CPU        1d   14h25m WALL

     INITIALIZATION: 
     phq_setup    :      1.19s CPU      1.65s WALL (       4 calls)
     phq_init     :     21.20s CPU     21.84s WALL (       4 calls)
 
     phq_init     :     21.20s CPU     21.84s WALL (       4 calls)
     init_vloc    :      0.07s CPU      0.07s WALL (       5 calls)
     init_us_1    :      0.03s CPU      0.04s WALL (       5 calls)
 
     DYNAMICAL MATRIX:
     dynmat0      :     17.51s CPU     17.76s WALL (       4 calls)
     phqscf       : 128955.09s CPU 133995.26s WALL (       4 calls)
     dynmatrix    :      0.33s CPU      0.41s WALL (       4 calls)
 
     phqscf       : 128955.09s CPU 133995.26s WALL (       4 calls)
     solve_linter : 128701.11s CPU 133718.76s WALL (     263 calls)
     drhodv       :    252.27s CPU    263.93s WALL (     263 calls)
 
     dynmat0      :     17.51s CPU     17.76s WALL (       4 calls)
     dynmat_us    :     17.10s CPU     17.32s WALL (       4 calls)
     d2ionq       :      0.38s CPU      0.38s WALL (       4 calls)
 
     dynmat_us    :     17.10s CPU     17.32s WALL (       4 calls)
 
     phqscf       : 128955.09s CPU 133995.26s WALL (       4 calls)
     solve_linter : 128701.11s CPU 133718.76s WALL (     263 calls)
 
     solve_linter : 128701.11s CPU 133718.76s WALL (     263 calls)
     dvqpsi_us    :   2098.25s CPU   2164.37s WALL (  285912 calls)
     ortho        :   1117.51s CPU   1163.91s WALL ( 1288116 calls)
     cgsolve      : 104705.54s CPU 107541.05s WALL ( 1288116 calls)
     incdrhoscf   :  13591.01s CPU  14153.18s WALL ( 1288116 calls)
     vpsifft      :   6531.00s CPU   6783.09s WALL ( 1002204 calls)
     dv_of_drho   :      2.78s CPU      3.00s WALL (    1107 calls)
     mix_pot      :      1.85s CPU     12.79s WALL (    1103 calls)
     psymdvscf    :      8.49s CPU      8.57s WALL (     743 calls)
 
     dvqpsi_us    :   2098.25s CPU   2164.37s WALL (  285912 calls)
     dvqpsi_us_on :    157.89s CPU    161.35s WALL (  285912 calls)
 
     cgsolve      : 104705.54s CPU 107541.05s WALL ( 1288116 calls)
     ch_psi       : 102738.12s CPU 105515.27s WALL (25678301 calls)
 
     ch_psi       : 102738.12s CPU 105515.27s WALL (25678301 calls)
     h_psi        :  98712.81s CPU 101391.06s WALL (26397251 calls)
     last         :   5248.74s CPU   5382.66s WALL (25678301 calls)
 
     h_psi        :  98712.81s CPU 101391.06s WALL (26397251 calls)
     add_vuspsi   :   1605.43s CPU   1649.04s WALL (26397251 calls)
 
     incdrhoscf   :  13591.01s CPU  14153.18s WALL ( 1288116 calls)
 
 
      General routines
     calbec       :   5623.71s CPU   5778.90s WALL (53262520 calls)
     fft          :      2.39s CPU      2.56s WALL (   12248 calls)
     ffts         :     67.36s CPU     72.84s WALL (  303270 calls)
     fftw         : 108607.02s CPU 111827.06s WALL (******** calls)
     davcio       :    318.55s CPU   1503.05s WALL ( 6460782 calls)
     write_rec    :      3.09s CPU     63.41s WALL (    1366 calls)
 
 
     PHONON       :     1d   12h59m CPU        1d   14h25m WALL

 
   This run was terminated on:   9: 5:20   7Oct2020            

=------------------------------------------------------------------------------=
   JOB DONE.
=------------------------------------------------------------------------------=
