
     Program PHONON v.7.0 starts on 31May2022 at  2:52:17 

     This program is part of the open-source Quantum ESPRESSO suite
     for quantum simulation of materials; please cite
         "P. Giannozzi et al., J. Phys.:Condens. Matter 21 395502 (2009);
         "P. Giannozzi et al., J. Phys.:Condens. Matter 29 465901 (2017);
         "P. Giannozzi et al., J. Chem. Phys. 152 154105 (2020);
          URL http://www.quantum-espresso.org", 
     in publications or presentations arising from this work. More details at
     http://www.quantum-espresso.org/quote

     Parallel version (MPI), running on    20 processors

     MPI processes distributed on     1 nodes
     R & G space division:  proc/nbgrp/npool/nimage =      20
     355623 MiB available memory on the printing compute node when the environment starts
 
     Reading input from /cephfs/home/mgrebenyuk/QE/Examples/CaH6/160GPa/2x2x2/ph.in

     Reading xml data from directory:

     ./CaH6.save/

     IMPORTANT: XC functional enforced from input :
     Exchange-correlation= PZ
                           (   1   1   0   0   0   0   0)
     Any further DFT definition will be discarded
     Please, verify this is what you really want

 
     Parallelization info
     --------------------
     sticks:   dense  smooth     PW     G-vecs:    dense   smooth      PW
     Min          32      32     11                  536      536     114
     Max          33      33     12                  539      539     117
     Sum         657     657    233                10761    10761    2315
 
     Using Slab Decomposition
 
     Reading collected, re-writing distributed wavefunctions


     Dynamical matrices for ( 2, 2, 2)  uniform grid of q-points
     With a half shift
     (   4 q-points):
       N         xq(1)         xq(2)         xq(3) 
       1   0.433045154   0.433029351  -0.433039745
       2   0.433041186  -0.000000233  -0.000004201
       3  -0.000000233   0.433014750  -0.000014834
       4  -0.000004201  -0.000014834   0.433020710
     Because shifted q grid is used, q2r will not work !

     Saving dvscf to file. Distribute only q points, not irreducible represetations.

     Calculation of q =    0.4330452   0.4330294  -0.4330397

     Subspace diagonalization in iterative solution of the eigenvalue problem:
     a serial algorithm will be used

     [opt_tetra]  Optimized tetrahedron method is used.
 
     Parallelization info
     --------------------
     sticks:   dense  smooth     PW     G-vecs:    dense   smooth      PW
     Min          32      32     13                  536      536     132
     Max          33      33     14                  539      539     134
     Sum         657     657    261                10761    10761    2659
 
     Using Slab Decomposition
 

     Title: 
     Electron-phonon coefficients for CaH6                                      


     bravais-lattice index     =            0
     lattice parameter (alat)  =       5.2449  a.u.
     unit-cell volume          =     111.0570 (a.u.)^3
     number of atoms/cell      =            7
     number of atomic types    =            2
     number of electrons       =         8.00
     number of Kohn-Sham states=            8
     kinetic-energy cutoff     =      80.0000  Ry
     charge density cutoff     =     320.0000  Ry
     Exchange-correlation= PZ
                           (   1   1   0   0   0   0   0)

     celldm(1)=   5.244879  celldm(2)=   0.000000  celldm(3)=   0.000000
     celldm(4)=   0.000000  celldm(5)=   0.000000  celldm(6)=   0.000000

     crystal axes: (cart. coord. in units of alat)
               a(1) = (   0.577318   0.577368   0.577365 )  
               a(2) = (   0.577306  -0.577367  -0.577354 )  
               a(3) = (  -0.577318   0.577327  -0.577325 )  

     reciprocal axes: (cart. coord. in units 2 pi/alat)
               b(1) = (  0.866082  0.866029 -0.000038 )  
               b(2) = (  0.866091  0.000029 -0.866050 )  
               b(3) = (  0.000008  0.866059 -0.866071 )  


     PseudoPot. # 1 for H  read from file:
     ./H.UPF
     MD5 check sum: df8e43189db5a2d7f03d0dd74d71ce72
     Pseudo is Norm-conserving, Zval =  1.0
     Generated in analytical, separable form
     Using radial grid of  929 points,  0 beta functions with: 

     PseudoPot. # 2 for Ca read from file:
     ./Ca.UPF
     MD5 check sum: 3d0b95105a6fbfe7d4b72bf2bbe3cdff
     Pseudo is Norm-conserving, Zval =  2.0
     Generated in analytical, separable form
     Using radial grid of 1169 points,  6 beta functions with: 
                l(1) =   0
                l(2) =   0
                l(3) =   0
                l(4) =   1
                l(5) =   1
                l(6) =   2

     atomic species   valence    mass     pseudopotential
        H              1.00     1.00794     H ( 1.00)
        Ca             2.00    40.07800     Ca( 1.00)

      2 Sym. Ops., with inversion, found



   Cartesian axes

     site n.     atom                  positions (alat units)
         1           Ca  tau(   1) = (   0.0000005   0.0000001  -0.0000000  )
         2           H   tau(   2) = (   0.2886505  -0.0000192  -0.5773350  )
         3           H   tau(   3) = (   0.2886562   0.5773474   0.0000208  )
         4           H   tau(   4) = (   0.5773123   0.2886735   0.0000090  )
         5           H   tau(   5) = (  -0.0000054   0.2886546  -0.5773232  )
         6           H   tau(   6) = (   0.5773075  -0.0000030  -0.2886636  )
         7           H   tau(   7) = (  -0.0000006   0.5773309  -0.2886506  )

     number of k points=  1024 (tetrahedron method)

     Number of k-points >= 100: set verbosity='high' to print them.

     Dense  grid:    10761 G-vectors     FFT dimensions: (  30,  30,  30)

     Estimated max dynamical RAM per process >       3.37 MB

     Estimated total dynamical RAM >      67.41 MB

     The potential is recalculated from file :
     ./_ph0/CaH6.q_1/CaH6.save/charge-density

     Starting wfcs are    6 atomic +    2 random wfcs

     Band Structure Calculation
     Davidson diagonalization with overlap

     ethr =  1.25E-10,  avg # of iterations = 21.4

     total cpu time spent up to now is       20.0 secs

     End of band structure calculation

     Number of k-points >= 100: set verbosity='high' to print the bands.

     the Fermi energy is    11.1880 ev

     Writing config to output data dir ./_ph0/CaH6.q_1/CaH6.save/
 
     [dfpt_tetra]  Dos(E_F)[/Ry] :   0.6399897E+01

     Electron-phonon coefficients for CaH6                                      

     bravais-lattice index     =            0
     lattice parameter (alat)  =       5.2449  a.u.
     unit-cell volume          =     111.0570 (a.u.)^3
     number of atoms/cell      =            7
     number of atomic types    =            2
     kinetic-energy cut-off    =      80.0000  Ry
     charge density cut-off    =     320.0000  Ry
     convergence threshold     =      1.0E-08
     beta                      =       0.7000
     number of iterations used =            4
     Exchange-correlation= PZ
                           (   1   1   0   0   0   0   0)


     celldm(1)=    5.24488  celldm(2)=    0.00000  celldm(3)=    0.00000
     celldm(4)=    0.00000  celldm(5)=    0.00000  celldm(6)=    0.00000

     crystal axes: (cart. coord. in units of alat)
               a(1) = (  0.5773  0.5774  0.5774 )  
               a(2) = (  0.5773 -0.5774 -0.5774 )  
               a(3) = ( -0.5773  0.5773 -0.5773 )  

     reciprocal axes: (cart. coord. in units 2 pi/alat)
               b(1) = (  0.8661  0.8660 -0.0000 )  
               b(2) = (  0.8661  0.0000 -0.8660 )  
               b(3) = (  0.0000  0.8661 -0.8661 )  


     Atoms inside the unit cell: 

     Cartesian axes

     site n.  atom      mass           positions (alat units)
        1     Ca  40.0780   tau(    1) = (    0.00000    0.00000   -0.00000  )
        2     H    1.0079   tau(    2) = (    0.28865   -0.00002   -0.57734  )
        3     H    1.0079   tau(    3) = (    0.28866    0.57735    0.00002  )
        4     H    1.0079   tau(    4) = (    0.57731    0.28867    0.00001  )
        5     H    1.0079   tau(    5) = (   -0.00001    0.28865   -0.57732  )
        6     H    1.0079   tau(    6) = (    0.57731   -0.00000   -0.28866  )
        7     H    1.0079   tau(    7) = (   -0.00000    0.57733   -0.28865  )

     Computing dynamical matrix for 
                    q = (   0.4330452   0.4330294  -0.4330397 )
 
     No symmetry!

     G cutoff =  222.9776  (    539 G-vectors)     FFT grid: ( 30, 30, 30)
     number of k points=  1024

     PseudoPot. # 1 for H  read from file:
     ./H.UPF
     MD5 check sum: df8e43189db5a2d7f03d0dd74d71ce72
     Pseudo is Norm-conserving, Zval =  1.0
     Generated in analytical, separable form
     Using radial grid of  929 points,  0 beta functions with: 

     PseudoPot. # 2 for Ca read from file:
     ./Ca.UPF
     MD5 check sum: 3d0b95105a6fbfe7d4b72bf2bbe3cdff
     Pseudo is Norm-conserving, Zval =  2.0
     Generated in analytical, separable form
     Using radial grid of 1169 points,  6 beta functions with: 
                l(1) =   0
                l(2) =   0
                l(3) =   0
                l(4) =   1
                l(5) =   1
                l(6) =   2

     Mode symmetry, C_1 (1)     point group:


     Atomic displacements:
     There are   21 irreducible representations

     Representation     1      1 modes -  To be done

     Representation     2      1 modes -  To be done

     Representation     3      1 modes -  To be done

     Representation     4      1 modes -  To be done

     Representation     5      1 modes -  To be done

     Representation     6      1 modes -  To be done

     Representation     7      1 modes -  To be done

     Representation     8      1 modes -  To be done

     Representation     9      1 modes -  To be done

     Representation    10      1 modes -  To be done

     Representation    11      1 modes -  To be done

     Representation    12      1 modes -  To be done

     Representation    13      1 modes -  To be done

     Representation    14      1 modes -  To be done

     Representation    15      1 modes -  To be done

     Representation    16      1 modes -  To be done

     Representation    17      1 modes -  To be done

     Representation    18      1 modes -  To be done

     Representation    19      1 modes -  To be done

     Representation    20      1 modes -  To be done

     Representation    21      1 modes -  To be done



     Alpha used in Ewald sum =   2.8000
     PHONON       :     20.61s CPU     27.79s WALL



     Representation #   1 mode #   1

     Self-consistent Calculation

      iter #   1 total cpu time :    30.5 secs   av.it.:   3.2
      thresh= 1.000E-02 alpha_mix =  0.700 |ddv_scf|^2 =  1.401E-06

      iter #   2 total cpu time :    34.5 secs   av.it.:   6.1
      thresh= 1.184E-04 alpha_mix =  0.700 |ddv_scf|^2 =  1.130E-06

      iter #   3 total cpu time :    38.3 secs   av.it.:   5.7
      thresh= 1.063E-04 alpha_mix =  0.700 |ddv_scf|^2 =  6.175E-09

     End of self-consistent calculation

     Convergence has been achieved 


     Representation #   2 mode #   2

     Self-consistent Calculation

      iter #   1 total cpu time :    41.6 secs   av.it.:   3.2
      thresh= 1.000E-02 alpha_mix =  0.700 |ddv_scf|^2 =  1.402E-06

      iter #   2 total cpu time :    45.7 secs   av.it.:   6.2
      thresh= 1.184E-04 alpha_mix =  0.700 |ddv_scf|^2 =  1.118E-06

      iter #   3 total cpu time :    49.6 secs   av.it.:   5.8
      thresh= 1.057E-04 alpha_mix =  0.700 |ddv_scf|^2 =  6.278E-09

     End of self-consistent calculation

     Convergence has been achieved 


     Representation #   3 mode #   3

     Self-consistent Calculation

      iter #   1 total cpu time :    52.5 secs   av.it.:   3.1
      thresh= 1.000E-02 alpha_mix =  0.700 |ddv_scf|^2 =  1.227E-06

      iter #   2 total cpu time :    56.5 secs   av.it.:   6.1
      thresh= 1.108E-04 alpha_mix =  0.700 |ddv_scf|^2 =  7.556E-07

      iter #   3 total cpu time :    60.4 secs   av.it.:   5.7
      thresh= 8.693E-05 alpha_mix =  0.700 |ddv_scf|^2 =  1.490E-09

     End of self-consistent calculation

     Convergence has been achieved 


     Representation #   4 mode #   4

     Self-consistent Calculation

      iter #   1 total cpu time :    63.2 secs   av.it.:   3.2
      thresh= 1.000E-02 alpha_mix =  0.700 |ddv_scf|^2 =  1.353E-06

      iter #   2 total cpu time :    67.7 secs   av.it.:   6.2
      thresh= 1.163E-04 alpha_mix =  0.700 |ddv_scf|^2 =  1.049E-06

      iter #   3 total cpu time :    71.6 secs   av.it.:   5.8
      thresh= 1.024E-04 alpha_mix =  0.700 |ddv_scf|^2 =  6.144E-09

     End of self-consistent calculation

     Convergence has been achieved 


     Representation #   5 mode #   5

     Self-consistent Calculation

      iter #   1 total cpu time :    74.6 secs   av.it.:   3.4
      thresh= 1.000E-02 alpha_mix =  0.700 |ddv_scf|^2 =  1.997E-06

      iter #   2 total cpu time :    78.6 secs   av.it.:   6.0
      thresh= 1.413E-04 alpha_mix =  0.700 |ddv_scf|^2 =  1.168E-06

      iter #   3 total cpu time :    82.4 secs   av.it.:   5.5
      thresh= 1.081E-04 alpha_mix =  0.700 |ddv_scf|^2 =  1.395E-09

     End of self-consistent calculation

     Convergence has been achieved 


     Representation #   6 mode #   6

     Self-consistent Calculation

      iter #   1 total cpu time :    85.3 secs   av.it.:   3.2
      thresh= 1.000E-02 alpha_mix =  0.700 |ddv_scf|^2 =  1.476E-06

      iter #   2 total cpu time :    89.8 secs   av.it.:   6.2
      thresh= 1.215E-04 alpha_mix =  0.700 |ddv_scf|^2 =  1.354E-06

      iter #   3 total cpu time :    93.7 secs   av.it.:   5.8
      thresh= 1.164E-04 alpha_mix =  0.700 |ddv_scf|^2 =  4.736E-09

     End of self-consistent calculation

     Convergence has been achieved 


     Representation #   7 mode #   7

     Self-consistent Calculation

      iter #   1 total cpu time :    96.6 secs   av.it.:   3.2
      thresh= 1.000E-02 alpha_mix =  0.700 |ddv_scf|^2 =  1.605E-06

      iter #   2 total cpu time :   100.7 secs   av.it.:   6.2
      thresh= 1.267E-04 alpha_mix =  0.700 |ddv_scf|^2 =  1.596E-06

      iter #   3 total cpu time :   104.5 secs   av.it.:   5.7
      thresh= 1.263E-04 alpha_mix =  0.700 |ddv_scf|^2 =  2.802E-09

     End of self-consistent calculation

     Convergence has been achieved 


     Representation #   8 mode #   8

     Self-consistent Calculation

      iter #   1 total cpu time :   107.6 secs   av.it.:   3.2
      thresh= 1.000E-02 alpha_mix =  0.700 |ddv_scf|^2 =  1.261E-06

      iter #   2 total cpu time :   111.7 secs   av.it.:   6.1
      thresh= 1.123E-04 alpha_mix =  0.700 |ddv_scf|^2 =  9.046E-07

      iter #   3 total cpu time :   115.6 secs   av.it.:   5.8
      thresh= 9.511E-05 alpha_mix =  0.700 |ddv_scf|^2 =  5.371E-09

     End of self-consistent calculation

     Convergence has been achieved 


     Representation #   9 mode #   9

     Self-consistent Calculation

      iter #   1 total cpu time :   118.4 secs   av.it.:   3.1
      thresh= 1.000E-02 alpha_mix =  0.700 |ddv_scf|^2 =  1.190E-06

      iter #   2 total cpu time :   122.5 secs   av.it.:   6.1
      thresh= 1.091E-04 alpha_mix =  0.700 |ddv_scf|^2 =  7.567E-07

      iter #   3 total cpu time :   126.3 secs   av.it.:   5.7
      thresh= 8.699E-05 alpha_mix =  0.700 |ddv_scf|^2 =  2.763E-09

     End of self-consistent calculation

     Convergence has been achieved 


     Representation #  10 mode #  10

     Self-consistent Calculation

      iter #   1 total cpu time :   129.2 secs   av.it.:   3.2
      thresh= 1.000E-02 alpha_mix =  0.700 |ddv_scf|^2 =  1.460E-06

      iter #   2 total cpu time :   133.7 secs   av.it.:   6.2
      thresh= 1.208E-04 alpha_mix =  0.700 |ddv_scf|^2 =  1.217E-06

      iter #   3 total cpu time :   137.6 secs   av.it.:   5.8
      thresh= 1.103E-04 alpha_mix =  0.700 |ddv_scf|^2 =  6.292E-09

     End of self-consistent calculation

     Convergence has been achieved 


     Representation #  11 mode #  11

     Self-consistent Calculation

      iter #   1 total cpu time :   141.9 secs   av.it.:   3.1
      thresh= 1.000E-02 alpha_mix =  0.700 |ddv_scf|^2 =  1.198E-06

      iter #   2 total cpu time :   145.9 secs   av.it.:   6.1
      thresh= 1.095E-04 alpha_mix =  0.700 |ddv_scf|^2 =  7.332E-07

      iter #   3 total cpu time :   150.8 secs   av.it.:   5.7
      thresh= 8.563E-05 alpha_mix =  0.700 |ddv_scf|^2 =  1.747E-09

     End of self-consistent calculation

     Convergence has been achieved 


     Representation #  12 mode #  12

     Self-consistent Calculation

      iter #   1 total cpu time :   154.1 secs   av.it.:   3.1
      thresh= 1.000E-02 alpha_mix =  0.700 |ddv_scf|^2 =  1.226E-06

      iter #   2 total cpu time :   158.2 secs   av.it.:   6.1
      thresh= 1.107E-04 alpha_mix =  0.700 |ddv_scf|^2 =  8.779E-07

      iter #   3 total cpu time :   162.1 secs   av.it.:   5.8
      thresh= 9.370E-05 alpha_mix =  0.700 |ddv_scf|^2 =  5.441E-09

     End of self-consistent calculation

     Convergence has been achieved 


     Representation #  13 mode #  13

     Self-consistent Calculation

      iter #   1 total cpu time :   164.9 secs   av.it.:   3.1
      thresh= 1.000E-02 alpha_mix =  0.700 |ddv_scf|^2 =  1.368E-06

      iter #   2 total cpu time :   169.0 secs   av.it.:   6.2
      thresh= 1.170E-04 alpha_mix =  0.700 |ddv_scf|^2 =  1.179E-06

      iter #   3 total cpu time :   172.8 secs   av.it.:   5.7
      thresh= 1.086E-04 alpha_mix =  0.700 |ddv_scf|^2 =  5.539E-09

     End of self-consistent calculation

     Convergence has been achieved 


     Representation #  14 mode #  14

     Self-consistent Calculation

      iter #   1 total cpu time :   175.9 secs   av.it.:   3.4
      thresh= 1.000E-02 alpha_mix =  0.700 |ddv_scf|^2 =  1.986E-06

      iter #   2 total cpu time :   180.4 secs   av.it.:   6.1
      thresh= 1.409E-04 alpha_mix =  0.700 |ddv_scf|^2 =  1.153E-06

      iter #   3 total cpu time :   184.2 secs   av.it.:   5.5
      thresh= 1.074E-04 alpha_mix =  0.700 |ddv_scf|^2 =  1.401E-09

     End of self-consistent calculation

     Convergence has been achieved 


     Representation #  15 mode #  15

     Self-consistent Calculation

      iter #   1 total cpu time :   187.0 secs   av.it.:   3.1
      thresh= 1.000E-02 alpha_mix =  0.700 |ddv_scf|^2 =  1.138E-06

      iter #   2 total cpu time :   191.0 secs   av.it.:   6.0
      thresh= 1.067E-04 alpha_mix =  0.700 |ddv_scf|^2 =  6.858E-07

      iter #   3 total cpu time :   194.9 secs   av.it.:   5.7
      thresh= 8.282E-05 alpha_mix =  0.700 |ddv_scf|^2 =  1.693E-09

     End of self-consistent calculation

     Convergence has been achieved 


     Representation #  16 mode #  16

     Self-consistent Calculation

      iter #   1 total cpu time :   197.7 secs   av.it.:   3.2
      thresh= 1.000E-02 alpha_mix =  0.700 |ddv_scf|^2 =  1.683E-06

      iter #   2 total cpu time :   202.3 secs   av.it.:   6.1
      thresh= 1.297E-04 alpha_mix =  0.700 |ddv_scf|^2 =  1.747E-06

      iter #   3 total cpu time :   206.2 secs   av.it.:   5.7
      thresh= 1.322E-04 alpha_mix =  0.700 |ddv_scf|^2 =  1.392E-09

     End of self-consistent calculation

     Convergence has been achieved 


     Representation #  17 mode #  17

     Self-consistent Calculation

      iter #   1 total cpu time :   209.3 secs   av.it.:   3.2
      thresh= 1.000E-02 alpha_mix =  0.700 |ddv_scf|^2 =  1.530E-06

      iter #   2 total cpu time :   213.4 secs   av.it.:   6.2
      thresh= 1.237E-04 alpha_mix =  0.700 |ddv_scf|^2 =  1.378E-06

      iter #   3 total cpu time :   217.2 secs   av.it.:   5.8
      thresh= 1.174E-04 alpha_mix =  0.700 |ddv_scf|^2 =  5.445E-09

     End of self-consistent calculation

     Convergence has been achieved 


     Representation #  18 mode #  18

     Self-consistent Calculation

      iter #   1 total cpu time :   220.3 secs   av.it.:   3.4
      thresh= 1.000E-02 alpha_mix =  0.700 |ddv_scf|^2 =  2.024E-06

      iter #   2 total cpu time :   224.3 secs   av.it.:   6.1
      thresh= 1.423E-04 alpha_mix =  0.700 |ddv_scf|^2 =  1.190E-06

      iter #   3 total cpu time :   228.8 secs   av.it.:   5.5
      thresh= 1.091E-04 alpha_mix =  0.700 |ddv_scf|^2 =  1.392E-09

     End of self-consistent calculation

     Convergence has been achieved 


     Representation #  19 mode #  19

     Self-consistent Calculation

      iter #   1 total cpu time :   231.6 secs   av.it.:   3.1
      thresh= 1.000E-02 alpha_mix =  0.700 |ddv_scf|^2 =  1.365E-06

      iter #   2 total cpu time :   235.7 secs   av.it.:   6.1
      thresh= 1.168E-04 alpha_mix =  0.700 |ddv_scf|^2 =  9.528E-07

      iter #   3 total cpu time :   239.5 secs   av.it.:   5.7
      thresh= 9.761E-05 alpha_mix =  0.700 |ddv_scf|^2 =  4.755E-09

     End of self-consistent calculation

     Convergence has been achieved 


     Representation #  20 mode #  20

     Self-consistent Calculation

      iter #   1 total cpu time :   242.4 secs   av.it.:   3.2
      thresh= 1.000E-02 alpha_mix =  0.700 |ddv_scf|^2 =  1.392E-06

      iter #   2 total cpu time :   246.5 secs   av.it.:   6.2
      thresh= 1.180E-04 alpha_mix =  0.700 |ddv_scf|^2 =  1.013E-06

      iter #   3 total cpu time :   250.4 secs   av.it.:   5.8
      thresh= 1.007E-04 alpha_mix =  0.700 |ddv_scf|^2 =  5.587E-09

     End of self-consistent calculation

     Convergence has been achieved 


     Representation #  21 mode #  21

     Self-consistent Calculation

      iter #   1 total cpu time :   254.7 secs   av.it.:   3.2
      thresh= 1.000E-02 alpha_mix =  0.700 |ddv_scf|^2 =  1.411E-06

      iter #   2 total cpu time :   258.8 secs   av.it.:   6.1
      thresh= 1.188E-04 alpha_mix =  0.700 |ddv_scf|^2 =  1.008E-06

      iter #   3 total cpu time :   262.7 secs   av.it.:   5.8
      thresh= 1.004E-04 alpha_mix =  0.700 |ddv_scf|^2 =  5.257E-09

     End of self-consistent calculation

     Convergence has been achieved 
 
     Number of q in the star =    2
     List of q in the star:
          1   0.433045154   0.433029351  -0.433039745
          2  -0.433045154  -0.433029351   0.433039745

     Diagonalizing the dynamical matrix

     q = (    0.433045154   0.433029351  -0.433039745 ) 

 **************************************************************************
     freq (    1) =      -8.180767 [THz] =    -272.881016 [cm-1]
     freq (    2) =       5.087545 [THz] =     169.702248 [cm-1]
     freq (    3) =       5.265092 [THz] =     175.624576 [cm-1]
     freq (    4) =       5.689230 [THz] =     189.772285 [cm-1]
     freq (    5) =      17.654484 [THz] =     588.890205 [cm-1]
     freq (    6) =      18.419155 [THz] =     614.396861 [cm-1]
     freq (    7) =      19.454250 [THz] =     648.923920 [cm-1]
     freq (    8) =      19.734141 [THz] =     658.260093 [cm-1]
     freq (    9) =      20.979112 [THz] =     699.787854 [cm-1]
     freq (   10) =      25.749388 [THz] =     858.907144 [cm-1]
     freq (   11) =      26.628954 [THz] =     888.246293 [cm-1]
     freq (   12) =      29.580689 [THz] =     986.705569 [cm-1]
     freq (   13) =      29.629956 [THz] =     988.348936 [cm-1]
     freq (   14) =      31.091337 [THz] =    1037.095378 [cm-1]
     freq (   15) =      32.376311 [THz] =    1079.957501 [cm-1]
     freq (   16) =      45.593424 [THz] =    1520.832932 [cm-1]
     freq (   17) =      45.915581 [THz] =    1531.578936 [cm-1]
     freq (   18) =      46.058814 [THz] =    1536.356658 [cm-1]
     freq (   19) =      51.384895 [THz] =    1714.015602 [cm-1]
     freq (   20) =      52.901974 [THz] =    1764.619900 [cm-1]
     freq (   21) =      53.329141 [THz] =    1778.868651 [cm-1]
 **************************************************************************

     Mode symmetry, C_1 (1)     point group:

     freq (   1-   1) =       -272.9  [cm-1]   --> A                  
     freq (   2-   2) =        169.7  [cm-1]   --> A                  
     freq (   3-   3) =        175.6  [cm-1]   --> A                  
     freq (   4-   4) =        189.8  [cm-1]   --> A                  
     freq (   5-   5) =        588.9  [cm-1]   --> A                  
     freq (   6-   6) =        614.4  [cm-1]   --> A                  
     freq (   7-   7) =        648.9  [cm-1]   --> A                  
     freq (   8-   8) =        658.3  [cm-1]   --> A                  
     freq (   9-   9) =        699.8  [cm-1]   --> A                  
     freq (  10-  10) =        858.9  [cm-1]   --> A                  
     freq (  11-  11) =        888.2  [cm-1]   --> A                  
     freq (  12-  12) =        986.7  [cm-1]   --> A                  
     freq (  13-  13) =        988.3  [cm-1]   --> A                  
     freq (  14-  14) =       1037.1  [cm-1]   --> A                  
     freq (  15-  15) =       1080.0  [cm-1]   --> A                  
     freq (  16-  16) =       1520.8  [cm-1]   --> A                  
     freq (  17-  17) =       1531.6  [cm-1]   --> A                  
     freq (  18-  18) =       1536.4  [cm-1]   --> A                  
     freq (  19-  19) =       1714.0  [cm-1]   --> A                  
     freq (  20-  20) =       1764.6  [cm-1]   --> A                  
     freq (  21-  21) =       1778.9  [cm-1]   --> A                  

     Calculation of q =    0.4330412  -0.0000002  -0.0000042
     [opt_tetra]  Optimized tetrahedron method is used.
 
     Parallelization info
     --------------------
     sticks:   dense  smooth     PW     G-vecs:    dense   smooth      PW
     Min          32      32     11                  536      536     114
     Max          33      33     12                  539      539     117
     Sum         657     657    233                10761    10761    2315
 
     Using Slab Decomposition
 

     Title: 
     Electron-phonon coefficients for CaH6                                      


     bravais-lattice index     =            0
     lattice parameter (alat)  =       5.2449  a.u.
     unit-cell volume          =     111.0570 (a.u.)^3
     number of atoms/cell      =            7
     number of atomic types    =            2
     number of electrons       =         8.00
     number of Kohn-Sham states=            8
     kinetic-energy cutoff     =      80.0000  Ry
     charge density cutoff     =     320.0000  Ry
     Exchange-correlation= PZ
                           (   1   1   0   0   0   0   0)

     celldm(1)=   5.244879  celldm(2)=   0.000000  celldm(3)=   0.000000
     celldm(4)=   0.000000  celldm(5)=   0.000000  celldm(6)=   0.000000

     crystal axes: (cart. coord. in units of alat)
               a(1) = (   0.577318   0.577368   0.577365 )  
               a(2) = (   0.577306  -0.577367  -0.577354 )  
               a(3) = (  -0.577318   0.577327  -0.577325 )  

     reciprocal axes: (cart. coord. in units 2 pi/alat)
               b(1) = (  0.866082  0.866029 -0.000038 )  
               b(2) = (  0.866091  0.000029 -0.866050 )  
               b(3) = (  0.000008  0.866059 -0.866071 )  


     PseudoPot. # 1 for H  read from file:
     ./H.UPF
     MD5 check sum: df8e43189db5a2d7f03d0dd74d71ce72
     Pseudo is Norm-conserving, Zval =  1.0
     Generated in analytical, separable form
     Using radial grid of  929 points,  0 beta functions with: 

     PseudoPot. # 2 for Ca read from file:
     ./Ca.UPF
     MD5 check sum: 3d0b95105a6fbfe7d4b72bf2bbe3cdff
     Pseudo is Norm-conserving, Zval =  2.0
     Generated in analytical, separable form
     Using radial grid of 1169 points,  6 beta functions with: 
                l(1) =   0
                l(2) =   0
                l(3) =   0
                l(4) =   1
                l(5) =   1
                l(6) =   2

     atomic species   valence    mass     pseudopotential
        H              1.00     1.00794     H ( 1.00)
        Ca             2.00    40.07800     Ca( 1.00)

      2 Sym. Ops., with inversion, found



   Cartesian axes

     site n.     atom                  positions (alat units)
         1           Ca  tau(   1) = (   0.0000005   0.0000001  -0.0000000  )
         2           H   tau(   2) = (   0.2886505  -0.0000192  -0.5773350  )
         3           H   tau(   3) = (   0.2886562   0.5773474   0.0000208  )
         4           H   tau(   4) = (   0.5773123   0.2886735   0.0000090  )
         5           H   tau(   5) = (  -0.0000054   0.2886546  -0.5773232  )
         6           H   tau(   6) = (   0.5773075  -0.0000030  -0.2886636  )
         7           H   tau(   7) = (  -0.0000006   0.5773309  -0.2886506  )

     number of k points=  1024 (tetrahedron method)

     Number of k-points >= 100: set verbosity='high' to print them.

     Dense  grid:    10761 G-vectors     FFT dimensions: (  30,  30,  30)

     Estimated max dynamical RAM per process >       3.31 MB

     Estimated total dynamical RAM >      66.19 MB

     The potential is recalculated from file :
     ./_ph0/CaH6.q_2/CaH6.save/charge-density

     Starting wfcs are    6 atomic +    2 random wfcs

     Band Structure Calculation
     Davidson diagonalization with overlap

     ethr =  1.25E-10,  avg # of iterations = 21.3

     total cpu time spent up to now is       39.7 secs

     End of band structure calculation

     Number of k-points >= 100: set verbosity='high' to print the bands.

     the Fermi energy is    11.1880 ev

     Writing config to output data dir ./_ph0/CaH6.q_2/CaH6.save/
 
     [dfpt_tetra]  Dos(E_F)[/Ry] :   0.6399897E+01

     Electron-phonon coefficients for CaH6                                      

     bravais-lattice index     =            0
     lattice parameter (alat)  =       5.2449  a.u.
     unit-cell volume          =     111.0570 (a.u.)^3
     number of atoms/cell      =            7
     number of atomic types    =            2
     kinetic-energy cut-off    =      80.0000  Ry
     charge density cut-off    =     320.0000  Ry
     convergence threshold     =      1.0E-08
     beta                      =       0.7000
     number of iterations used =            4
     Exchange-correlation= PZ
                           (   1   1   0   0   0   0   0)


     celldm(1)=    5.24488  celldm(2)=    0.00000  celldm(3)=    0.00000
     celldm(4)=    0.00000  celldm(5)=    0.00000  celldm(6)=    0.00000

     crystal axes: (cart. coord. in units of alat)
               a(1) = (  0.5773  0.5774  0.5774 )  
               a(2) = (  0.5773 -0.5774 -0.5774 )  
               a(3) = ( -0.5773  0.5773 -0.5773 )  

     reciprocal axes: (cart. coord. in units 2 pi/alat)
               b(1) = (  0.8661  0.8660 -0.0000 )  
               b(2) = (  0.8661  0.0000 -0.8660 )  
               b(3) = (  0.0000  0.8661 -0.8661 )  


     Atoms inside the unit cell: 

     Cartesian axes

     site n.  atom      mass           positions (alat units)
        1     Ca  40.0780   tau(    1) = (    0.00000    0.00000   -0.00000  )
        2     H    1.0079   tau(    2) = (    0.28865   -0.00002   -0.57734  )
        3     H    1.0079   tau(    3) = (    0.28866    0.57735    0.00002  )
        4     H    1.0079   tau(    4) = (    0.57731    0.28867    0.00001  )
        5     H    1.0079   tau(    5) = (   -0.00001    0.28865   -0.57732  )
        6     H    1.0079   tau(    6) = (    0.57731   -0.00000   -0.28866  )
        7     H    1.0079   tau(    7) = (   -0.00000    0.57733   -0.28865  )

     Computing dynamical matrix for 
                    q = (   0.4330412  -0.0000002  -0.0000042 )
 
     No symmetry!

     G cutoff =  222.9776  (    539 G-vectors)     FFT grid: ( 30, 30, 30)
     number of k points=  1024

     PseudoPot. # 1 for H  read from file:
     ./H.UPF
     MD5 check sum: df8e43189db5a2d7f03d0dd74d71ce72
     Pseudo is Norm-conserving, Zval =  1.0
     Generated in analytical, separable form
     Using radial grid of  929 points,  0 beta functions with: 

     PseudoPot. # 2 for Ca read from file:
     ./Ca.UPF
     MD5 check sum: 3d0b95105a6fbfe7d4b72bf2bbe3cdff
     Pseudo is Norm-conserving, Zval =  2.0
     Generated in analytical, separable form
     Using radial grid of 1169 points,  6 beta functions with: 
                l(1) =   0
                l(2) =   0
                l(3) =   0
                l(4) =   1
                l(5) =   1
                l(6) =   2

     Mode symmetry, C_1 (1)     point group:


     Atomic displacements:
     There are   21 irreducible representations

     Representation     1      1 modes -  To be done

     Representation     2      1 modes -  To be done

     Representation     3      1 modes -  To be done

     Representation     4      1 modes -  To be done

     Representation     5      1 modes -  To be done

     Representation     6      1 modes -  To be done

     Representation     7      1 modes -  To be done

     Representation     8      1 modes -  To be done

     Representation     9      1 modes -  To be done

     Representation    10      1 modes -  To be done

     Representation    11      1 modes -  To be done

     Representation    12      1 modes -  To be done

     Representation    13      1 modes -  To be done

     Representation    14      1 modes -  To be done

     Representation    15      1 modes -  To be done

     Representation    16      1 modes -  To be done

     Representation    17      1 modes -  To be done

     Representation    18      1 modes -  To be done

     Representation    19      1 modes -  To be done

     Representation    20      1 modes -  To be done

     Representation    21      1 modes -  To be done



     Alpha used in Ewald sum =   2.8000
     PHONON       :   4m 8.00s CPU   4m43.02s WALL



     Representation #   1 mode #   1

     Self-consistent Calculation

      iter #   1 total cpu time :   285.7 secs   av.it.:   3.2
      thresh= 1.000E-02 alpha_mix =  0.700 |ddv_scf|^2 =  1.029E-05

      iter #   2 total cpu time :   289.6 secs   av.it.:   6.0
      thresh= 3.208E-04 alpha_mix =  0.700 |ddv_scf|^2 =  1.223E-04

      iter #   3 total cpu time :   294.1 secs   av.it.:   4.9
      thresh= 1.106E-03 alpha_mix =  0.700 |ddv_scf|^2 =  1.285E-08

      iter #   4 total cpu time :   298.3 secs   av.it.:   6.4
      thresh= 1.133E-05 alpha_mix =  0.700 |ddv_scf|^2 =  2.632E-10

     End of self-consistent calculation

     Convergence has been achieved 


     Representation #   2 mode #   2

     Self-consistent Calculation

      iter #   1 total cpu time :   301.1 secs   av.it.:   3.2
      thresh= 1.000E-02 alpha_mix =  0.700 |ddv_scf|^2 =  1.467E-05

      iter #   2 total cpu time :   305.1 secs   av.it.:   6.0
      thresh= 3.830E-04 alpha_mix =  0.700 |ddv_scf|^2 =  1.735E-04

      iter #   3 total cpu time :   308.5 secs   av.it.:   4.9
      thresh= 1.317E-03 alpha_mix =  0.700 |ddv_scf|^2 =  1.794E-08

      iter #   4 total cpu time :   312.6 secs   av.it.:   6.2
      thresh= 1.339E-05 alpha_mix =  0.700 |ddv_scf|^2 =  2.397E-10

     End of self-consistent calculation

     Convergence has been achieved 


     Representation #   3 mode #   3

     Self-consistent Calculation

      iter #   1 total cpu time :   315.4 secs   av.it.:   3.2
      thresh= 1.000E-02 alpha_mix =  0.700 |ddv_scf|^2 =  1.643E-05

      iter #   2 total cpu time :   320.1 secs   av.it.:   6.0
      thresh= 4.053E-04 alpha_mix =  0.700 |ddv_scf|^2 =  1.966E-04

      iter #   3 total cpu time :   323.5 secs   av.it.:   4.9
      thresh= 1.402E-03 alpha_mix =  0.700 |ddv_scf|^2 =  1.055E-08

      iter #   4 total cpu time :   327.7 secs   av.it.:   6.5
      thresh= 1.027E-05 alpha_mix =  0.700 |ddv_scf|^2 =  2.799E-10

     End of self-consistent calculation

     Convergence has been achieved 


     Representation #   4 mode #   4

     Self-consistent Calculation

      iter #   1 total cpu time :   330.5 secs   av.it.:   3.3
      thresh= 1.000E-02 alpha_mix =  0.700 |ddv_scf|^2 =  1.979E-05

      iter #   2 total cpu time :   334.5 secs   av.it.:   6.0
      thresh= 4.449E-04 alpha_mix =  0.700 |ddv_scf|^2 =  2.410E-04

      iter #   3 total cpu time :   337.9 secs   av.it.:   4.9
      thresh= 1.552E-03 alpha_mix =  0.700 |ddv_scf|^2 =  1.401E-08

      iter #   4 total cpu time :   342.4 secs   av.it.:   6.5
      thresh= 1.184E-05 alpha_mix =  0.700 |ddv_scf|^2 =  5.398E-10

     End of self-consistent calculation

     Convergence has been achieved 


     Representation #   5 mode #   5

     Self-consistent Calculation

      iter #   1 total cpu time :   345.4 secs   av.it.:   3.5
      thresh= 1.000E-02 alpha_mix =  0.700 |ddv_scf|^2 =  4.473E-06

      iter #   2 total cpu time :   349.4 secs   av.it.:   6.0
      thresh= 2.115E-04 alpha_mix =  0.700 |ddv_scf|^2 =  4.916E-05

      iter #   3 total cpu time :   352.9 secs   av.it.:   4.9
      thresh= 7.012E-04 alpha_mix =  0.700 |ddv_scf|^2 =  3.588E-08

      iter #   4 total cpu time :   356.7 secs   av.it.:   5.9
      thresh= 1.894E-05 alpha_mix =  0.700 |ddv_scf|^2 =  3.655E-10

     End of self-consistent calculation

     Convergence has been achieved 


     Representation #   6 mode #   6

     Self-consistent Calculation

      iter #   1 total cpu time :   359.5 secs   av.it.:   3.1
      thresh= 1.000E-02 alpha_mix =  0.700 |ddv_scf|^2 =  3.199E-06

      iter #   2 total cpu time :   364.1 secs   av.it.:   6.0
      thresh= 1.789E-04 alpha_mix =  0.700 |ddv_scf|^2 =  3.532E-05

      iter #   3 total cpu time :   367.6 secs   av.it.:   4.9
      thresh= 5.943E-04 alpha_mix =  0.700 |ddv_scf|^2 =  2.233E-08

      iter #   4 total cpu time :   371.5 secs   av.it.:   6.0
      thresh= 1.494E-05 alpha_mix =  0.700 |ddv_scf|^2 =  1.139E-10

     End of self-consistent calculation

     Convergence has been achieved 


     Representation #   7 mode #   7

     Self-consistent Calculation

      iter #   1 total cpu time :   374.2 secs   av.it.:   3.1
      thresh= 1.000E-02 alpha_mix =  0.700 |ddv_scf|^2 =  2.817E-06

      iter #   2 total cpu time :   378.2 secs   av.it.:   6.0
      thresh= 1.678E-04 alpha_mix =  0.700 |ddv_scf|^2 =  3.063E-05

      iter #   3 total cpu time :   381.7 secs   av.it.:   4.9
      thresh= 5.534E-04 alpha_mix =  0.700 |ddv_scf|^2 =  2.306E-08

      iter #   4 total cpu time :   385.9 secs   av.it.:   6.0
      thresh= 1.519E-05 alpha_mix =  0.700 |ddv_scf|^2 =  1.042E-10

     End of self-consistent calculation

     Convergence has been achieved 


     Representation #   8 mode #   8

     Self-consistent Calculation

      iter #   1 total cpu time :   388.7 secs   av.it.:   3.2
      thresh= 1.000E-02 alpha_mix =  0.700 |ddv_scf|^2 =  4.301E-06

      iter #   2 total cpu time :   392.6 secs   av.it.:   6.0
      thresh= 2.074E-04 alpha_mix =  0.700 |ddv_scf|^2 =  4.815E-05

      iter #   3 total cpu time :   396.1 secs   av.it.:   4.9
      thresh= 6.939E-04 alpha_mix =  0.700 |ddv_scf|^2 =  2.653E-08

      iter #   4 total cpu time :   400.0 secs   av.it.:   6.1
      thresh= 1.629E-05 alpha_mix =  0.700 |ddv_scf|^2 =  1.509E-10

     End of self-consistent calculation

     Convergence has been achieved 


     Representation #   9 mode #   9

     Self-consistent Calculation

      iter #   1 total cpu time :   402.8 secs   av.it.:   3.2
      thresh= 1.000E-02 alpha_mix =  0.700 |ddv_scf|^2 =  1.390E-05

      iter #   2 total cpu time :   407.6 secs   av.it.:   6.0
      thresh= 3.729E-04 alpha_mix =  0.700 |ddv_scf|^2 =  1.684E-04

      iter #   3 total cpu time :   411.0 secs   av.it.:   4.9
      thresh= 1.298E-03 alpha_mix =  0.700 |ddv_scf|^2 =  1.271E-08

      iter #   4 total cpu time :   415.2 secs   av.it.:   6.6
      thresh= 1.128E-05 alpha_mix =  0.700 |ddv_scf|^2 =  4.229E-10

     End of self-consistent calculation

     Convergence has been achieved 


     Representation #  10 mode #  10

     Self-consistent Calculation

      iter #   1 total cpu time :   418.8 secs   av.it.:   3.3
      thresh= 1.000E-02 alpha_mix =  0.700 |ddv_scf|^2 =  1.750E-05

      iter #   2 total cpu time :   422.8 secs   av.it.:   6.0
      thresh= 4.183E-04 alpha_mix =  0.700 |ddv_scf|^2 =  2.117E-04

      iter #   3 total cpu time :   426.2 secs   av.it.:   4.9
      thresh= 1.455E-03 alpha_mix =  0.700 |ddv_scf|^2 =  1.244E-08

      iter #   4 total cpu time :   430.9 secs   av.it.:   6.6
      thresh= 1.115E-05 alpha_mix =  0.700 |ddv_scf|^2 =  4.209E-10

     End of self-consistent calculation

     Convergence has been achieved 


     Representation #  11 mode #  11

     Self-consistent Calculation

      iter #   1 total cpu time :   433.7 secs   av.it.:   3.2
      thresh= 1.000E-02 alpha_mix =  0.700 |ddv_scf|^2 =  1.367E-05

      iter #   2 total cpu time :   437.7 secs   av.it.:   6.0
      thresh= 3.698E-04 alpha_mix =  0.700 |ddv_scf|^2 =  1.629E-04

      iter #   3 total cpu time :   441.1 secs   av.it.:   4.9
      thresh= 1.277E-03 alpha_mix =  0.700 |ddv_scf|^2 =  1.087E-08

      iter #   4 total cpu time :   445.3 secs   av.it.:   6.4
      thresh= 1.042E-05 alpha_mix =  0.700 |ddv_scf|^2 =  2.391E-10

     End of self-consistent calculation

     Convergence has been achieved 


     Representation #  12 mode #  12

     Self-consistent Calculation

      iter #   1 total cpu time :   448.6 secs   av.it.:   3.3
      thresh= 1.000E-02 alpha_mix =  0.700 |ddv_scf|^2 =  2.115E-05

      iter #   2 total cpu time :   453.2 secs   av.it.:   6.0
      thresh= 4.599E-04 alpha_mix =  0.700 |ddv_scf|^2 =  2.553E-04

      iter #   3 total cpu time :   456.7 secs   av.it.:   4.9
      thresh= 1.598E-03 alpha_mix =  0.700 |ddv_scf|^2 =  9.177E-09

     End of self-consistent calculation

     Convergence has been achieved 


     Representation #  13 mode #  13

     Self-consistent Calculation

      iter #   1 total cpu time :   459.5 secs   av.it.:   3.1
      thresh= 1.000E-02 alpha_mix =  0.700 |ddv_scf|^2 =  5.967E-06

      iter #   2 total cpu time :   463.5 secs   av.it.:   6.0
      thresh= 2.443E-04 alpha_mix =  0.700 |ddv_scf|^2 =  6.923E-05

      iter #   3 total cpu time :   466.9 secs   av.it.:   4.9
      thresh= 8.320E-04 alpha_mix =  0.700 |ddv_scf|^2 =  1.356E-08

      iter #   4 total cpu time :   470.9 secs   av.it.:   6.2
      thresh= 1.164E-05 alpha_mix =  0.700 |ddv_scf|^2 =  1.238E-10

     End of self-consistent calculation

     Convergence has been achieved 


     Representation #  14 mode #  14

     Self-consistent Calculation

      iter #   1 total cpu time :   474.5 secs   av.it.:   3.7
      thresh= 1.000E-02 alpha_mix =  0.700 |ddv_scf|^2 =  7.054E-05

      iter #   2 total cpu time :   478.4 secs   av.it.:   5.9
      thresh= 8.399E-04 alpha_mix =  0.700 |ddv_scf|^2 =  8.377E-04

      iter #   3 total cpu time :   481.9 secs   av.it.:   4.9
      thresh= 2.894E-03 alpha_mix =  0.700 |ddv_scf|^2 =  5.815E-08

      iter #   4 total cpu time :   485.9 secs   av.it.:   6.2
      thresh= 2.411E-05 alpha_mix =  0.700 |ddv_scf|^2 =  1.237E-09

     End of self-consistent calculation

     Convergence has been achieved 


     Representation #  15 mode #  15

     Self-consistent Calculation

      iter #   1 total cpu time :   488.7 secs   av.it.:   3.2
      thresh= 1.000E-02 alpha_mix =  0.700 |ddv_scf|^2 =  8.256E-06

      iter #   2 total cpu time :   492.7 secs   av.it.:   6.0
      thresh= 2.873E-04 alpha_mix =  0.700 |ddv_scf|^2 =  9.690E-05

      iter #   3 total cpu time :   496.1 secs   av.it.:   4.9
      thresh= 9.844E-04 alpha_mix =  0.700 |ddv_scf|^2 =  1.259E-08

      iter #   4 total cpu time :   501.3 secs   av.it.:   6.3
      thresh= 1.122E-05 alpha_mix =  0.700 |ddv_scf|^2 =  1.699E-10

     End of self-consistent calculation

     Convergence has been achieved 


     Representation #  16 mode #  16

     Self-consistent Calculation

      iter #   1 total cpu time :   504.0 secs   av.it.:   3.1
      thresh= 1.000E-02 alpha_mix =  0.700 |ddv_scf|^2 =  2.051E-06

      iter #   2 total cpu time :   508.0 secs   av.it.:   6.1
      thresh= 1.432E-04 alpha_mix =  0.700 |ddv_scf|^2 =  2.128E-05

      iter #   3 total cpu time :   511.5 secs   av.it.:   4.9
      thresh= 4.613E-04 alpha_mix =  0.700 |ddv_scf|^2 =  3.042E-08

      iter #   4 total cpu time :   515.4 secs   av.it.:   5.9
      thresh= 1.744E-05 alpha_mix =  0.700 |ddv_scf|^2 =  9.342E-11

     End of self-consistent calculation

     Convergence has been achieved 


     Representation #  17 mode #  17

     Self-consistent Calculation

      iter #   1 total cpu time :   518.9 secs   av.it.:   3.1
      thresh= 1.000E-02 alpha_mix =  0.700 |ddv_scf|^2 =  3.519E-06

      iter #   2 total cpu time :   522.9 secs   av.it.:   6.1
      thresh= 1.876E-04 alpha_mix =  0.700 |ddv_scf|^2 =  4.017E-05

      iter #   3 total cpu time :   526.4 secs   av.it.:   4.9
      thresh= 6.338E-04 alpha_mix =  0.700 |ddv_scf|^2 =  1.459E-08

      iter #   4 total cpu time :   530.4 secs   av.it.:   6.3
      thresh= 1.208E-05 alpha_mix =  0.700 |ddv_scf|^2 =  2.165E-10

     End of self-consistent calculation

     Convergence has been achieved 


     Representation #  18 mode #  18

     Self-consistent Calculation

      iter #   1 total cpu time :   533.4 secs   av.it.:   3.5
      thresh= 1.000E-02 alpha_mix =  0.700 |ddv_scf|^2 =  1.667E-05

      iter #   2 total cpu time :   537.4 secs   av.it.:   6.0
      thresh= 4.083E-04 alpha_mix =  0.700 |ddv_scf|^2 =  1.948E-04

      iter #   3 total cpu time :   541.3 secs   av.it.:   4.9
      thresh= 1.396E-03 alpha_mix =  0.700 |ddv_scf|^2 =  3.222E-08

      iter #   4 total cpu time :   545.9 secs   av.it.:   6.2
      thresh= 1.795E-05 alpha_mix =  0.700 |ddv_scf|^2 =  4.903E-10

     End of self-consistent calculation

     Convergence has been achieved 


     Representation #  19 mode #  19

     Self-consistent Calculation

      iter #   1 total cpu time :   548.7 secs   av.it.:   3.3
      thresh= 1.000E-02 alpha_mix =  0.700 |ddv_scf|^2 =  2.108E-05

      iter #   2 total cpu time :   552.6 secs   av.it.:   6.0
      thresh= 4.591E-04 alpha_mix =  0.700 |ddv_scf|^2 =  2.532E-04

      iter #   3 total cpu time :   556.0 secs   av.it.:   4.9
      thresh= 1.591E-03 alpha_mix =  0.700 |ddv_scf|^2 =  1.042E-08

      iter #   4 total cpu time :   560.2 secs   av.it.:   6.5
      thresh= 1.021E-05 alpha_mix =  0.700 |ddv_scf|^2 =  3.405E-10

     End of self-consistent calculation

     Convergence has been achieved 


     Representation #  20 mode #  20

     Self-consistent Calculation

      iter #   1 total cpu time :   563.8 secs   av.it.:   3.2
      thresh= 1.000E-02 alpha_mix =  0.700 |ddv_scf|^2 =  6.374E-06

      iter #   2 total cpu time :   567.8 secs   av.it.:   6.0
      thresh= 2.525E-04 alpha_mix =  0.700 |ddv_scf|^2 =  7.247E-05

      iter #   3 total cpu time :   571.2 secs   av.it.:   4.9
      thresh= 8.513E-04 alpha_mix =  0.700 |ddv_scf|^2 =  3.285E-08

      iter #   4 total cpu time :   575.1 secs   av.it.:   6.0
      thresh= 1.813E-05 alpha_mix =  0.700 |ddv_scf|^2 =  1.958E-10

     End of self-consistent calculation

     Convergence has been achieved 


     Representation #  21 mode #  21

     Self-consistent Calculation

      iter #   1 total cpu time :   577.9 secs   av.it.:   3.2
      thresh= 1.000E-02 alpha_mix =  0.700 |ddv_scf|^2 =  7.784E-06

      iter #   2 total cpu time :   581.9 secs   av.it.:   6.0
      thresh= 2.790E-04 alpha_mix =  0.700 |ddv_scf|^2 =  9.205E-05

      iter #   3 total cpu time :   586.4 secs   av.it.:   4.9
      thresh= 9.594E-04 alpha_mix =  0.700 |ddv_scf|^2 =  1.691E-08

      iter #   4 total cpu time :   590.4 secs   av.it.:   6.4
      thresh= 1.300E-05 alpha_mix =  0.700 |ddv_scf|^2 =  2.357E-10

     End of self-consistent calculation

     Convergence has been achieved 
 
     Number of q in the star =    2
     List of q in the star:
          1   0.433041186  -0.000000233  -0.000004201
          2  -0.433041186   0.000000233   0.000004201

     Diagonalizing the dynamical matrix

     q = (    0.433041186  -0.000000233  -0.000004201 ) 

 **************************************************************************
     freq (    1) =       5.303016 [THz] =     176.889587 [cm-1]
     freq (    2) =       7.346714 [THz] =     245.060003 [cm-1]
     freq (    3) =       7.425224 [THz] =     247.678811 [cm-1]
     freq (    4) =      17.001354 [THz] =     567.104126 [cm-1]
     freq (    5) =      19.244690 [THz] =     641.933759 [cm-1]
     freq (    6) =      22.441353 [THz] =     748.562952 [cm-1]
     freq (    7) =      22.909254 [THz] =     764.170461 [cm-1]
     freq (    8) =      23.571936 [THz] =     786.275166 [cm-1]
     freq (    9) =      28.118848 [THz] =     937.943816 [cm-1]
     freq (   10) =      28.600995 [THz] =     954.026505 [cm-1]
     freq (   11) =      29.018049 [THz] =     967.937926 [cm-1]
     freq (   12) =      32.148359 [THz] =    1072.353830 [cm-1]
     freq (   13) =      33.543132 [THz] =    1118.878445 [cm-1]
     freq (   14) =      37.495462 [THz] =    1250.713984 [cm-1]
     freq (   15) =      38.098906 [THz] =    1270.842700 [cm-1]
     freq (   16) =      39.765628 [THz] =    1326.438575 [cm-1]
     freq (   17) =      41.634675 [THz] =    1388.783265 [cm-1]
     freq (   18) =      42.831003 [THz] =    1428.688485 [cm-1]
     freq (   19) =      48.093192 [THz] =    1604.216199 [cm-1]
     freq (   20) =      56.897554 [THz] =    1897.898096 [cm-1]
     freq (   21) =      68.813942 [THz] =    2295.386046 [cm-1]
 **************************************************************************

     Mode symmetry, C_1 (1)     point group:

     freq (   1-   1) =        176.9  [cm-1]   --> A                  
     freq (   2-   2) =        245.1  [cm-1]   --> A                  
     freq (   3-   3) =        247.7  [cm-1]   --> A                  
     freq (   4-   4) =        567.1  [cm-1]   --> A                  
     freq (   5-   5) =        641.9  [cm-1]   --> A                  
     freq (   6-   6) =        748.6  [cm-1]   --> A                  
     freq (   7-   7) =        764.2  [cm-1]   --> A                  
     freq (   8-   8) =        786.3  [cm-1]   --> A                  
     freq (   9-   9) =        937.9  [cm-1]   --> A                  
     freq (  10-  10) =        954.0  [cm-1]   --> A                  
     freq (  11-  11) =        967.9  [cm-1]   --> A                  
     freq (  12-  12) =       1072.4  [cm-1]   --> A                  
     freq (  13-  13) =       1118.9  [cm-1]   --> A                  
     freq (  14-  14) =       1250.7  [cm-1]   --> A                  
     freq (  15-  15) =       1270.8  [cm-1]   --> A                  
     freq (  16-  16) =       1326.4  [cm-1]   --> A                  
     freq (  17-  17) =       1388.8  [cm-1]   --> A                  
     freq (  18-  18) =       1428.7  [cm-1]   --> A                  
     freq (  19-  19) =       1604.2  [cm-1]   --> A                  
     freq (  20-  20) =       1897.9  [cm-1]   --> A                  
     freq (  21-  21) =       2295.4  [cm-1]   --> A                  

     Calculation of q =   -0.0000002   0.4330147  -0.0000148
     [opt_tetra]  Optimized tetrahedron method is used.
 
     Parallelization info
     --------------------
     sticks:   dense  smooth     PW     G-vecs:    dense   smooth      PW
     Min          32      32     11                  536      536     114
     Max          33      33     12                  539      539     117
     Sum         657     657    233                10761    10761    2315
 
     Using Slab Decomposition
 

     Title: 
     Electron-phonon coefficients for CaH6                                      


     bravais-lattice index     =            0
     lattice parameter (alat)  =       5.2449  a.u.
     unit-cell volume          =     111.0570 (a.u.)^3
     number of atoms/cell      =            7
     number of atomic types    =            2
     number of electrons       =         8.00
     number of Kohn-Sham states=            8
     kinetic-energy cutoff     =      80.0000  Ry
     charge density cutoff     =     320.0000  Ry
     Exchange-correlation= PZ
                           (   1   1   0   0   0   0   0)

     celldm(1)=   5.244879  celldm(2)=   0.000000  celldm(3)=   0.000000
     celldm(4)=   0.000000  celldm(5)=   0.000000  celldm(6)=   0.000000

     crystal axes: (cart. coord. in units of alat)
               a(1) = (   0.577318   0.577368   0.577365 )  
               a(2) = (   0.577306  -0.577367  -0.577354 )  
               a(3) = (  -0.577318   0.577327  -0.577325 )  

     reciprocal axes: (cart. coord. in units 2 pi/alat)
               b(1) = (  0.866082  0.866029 -0.000038 )  
               b(2) = (  0.866091  0.000029 -0.866050 )  
               b(3) = (  0.000008  0.866059 -0.866071 )  


     PseudoPot. # 1 for H  read from file:
     ./H.UPF
     MD5 check sum: df8e43189db5a2d7f03d0dd74d71ce72
     Pseudo is Norm-conserving, Zval =  1.0
     Generated in analytical, separable form
     Using radial grid of  929 points,  0 beta functions with: 

     PseudoPot. # 2 for Ca read from file:
     ./Ca.UPF
     MD5 check sum: 3d0b95105a6fbfe7d4b72bf2bbe3cdff
     Pseudo is Norm-conserving, Zval =  2.0
     Generated in analytical, separable form
     Using radial grid of 1169 points,  6 beta functions with: 
                l(1) =   0
                l(2) =   0
                l(3) =   0
                l(4) =   1
                l(5) =   1
                l(6) =   2

     atomic species   valence    mass     pseudopotential
        H              1.00     1.00794     H ( 1.00)
        Ca             2.00    40.07800     Ca( 1.00)

      2 Sym. Ops., with inversion, found



   Cartesian axes

     site n.     atom                  positions (alat units)
         1           Ca  tau(   1) = (   0.0000005   0.0000001  -0.0000000  )
         2           H   tau(   2) = (   0.2886505  -0.0000192  -0.5773350  )
         3           H   tau(   3) = (   0.2886562   0.5773474   0.0000208  )
         4           H   tau(   4) = (   0.5773123   0.2886735   0.0000090  )
         5           H   tau(   5) = (  -0.0000054   0.2886546  -0.5773232  )
         6           H   tau(   6) = (   0.5773075  -0.0000030  -0.2886636  )
         7           H   tau(   7) = (  -0.0000006   0.5773309  -0.2886506  )

     number of k points=  1024 (tetrahedron method)

     Number of k-points >= 100: set verbosity='high' to print them.

     Dense  grid:    10761 G-vectors     FFT dimensions: (  30,  30,  30)

     Estimated max dynamical RAM per process >       3.31 MB

     Estimated total dynamical RAM >      66.19 MB

     The potential is recalculated from file :
     ./_ph0/CaH6.q_3/CaH6.save/charge-density

     Starting wfcs are    6 atomic +    2 random wfcs

     Band Structure Calculation
     Davidson diagonalization with overlap

     ethr =  1.25E-10,  avg # of iterations = 21.3

     total cpu time spent up to now is       60.3 secs

     End of band structure calculation

     Number of k-points >= 100: set verbosity='high' to print the bands.

     the Fermi energy is    11.1880 ev

     Writing config to output data dir ./_ph0/CaH6.q_3/CaH6.save/
 
     [dfpt_tetra]  Dos(E_F)[/Ry] :   0.6399897E+01

     Electron-phonon coefficients for CaH6                                      

     bravais-lattice index     =            0
     lattice parameter (alat)  =       5.2449  a.u.
     unit-cell volume          =     111.0570 (a.u.)^3
     number of atoms/cell      =            7
     number of atomic types    =            2
     kinetic-energy cut-off    =      80.0000  Ry
     charge density cut-off    =     320.0000  Ry
     convergence threshold     =      1.0E-08
     beta                      =       0.7000
     number of iterations used =            4
     Exchange-correlation= PZ
                           (   1   1   0   0   0   0   0)


     celldm(1)=    5.24488  celldm(2)=    0.00000  celldm(3)=    0.00000
     celldm(4)=    0.00000  celldm(5)=    0.00000  celldm(6)=    0.00000

     crystal axes: (cart. coord. in units of alat)
               a(1) = (  0.5773  0.5774  0.5774 )  
               a(2) = (  0.5773 -0.5774 -0.5774 )  
               a(3) = ( -0.5773  0.5773 -0.5773 )  

     reciprocal axes: (cart. coord. in units 2 pi/alat)
               b(1) = (  0.8661  0.8660 -0.0000 )  
               b(2) = (  0.8661  0.0000 -0.8660 )  
               b(3) = (  0.0000  0.8661 -0.8661 )  


     Atoms inside the unit cell: 

     Cartesian axes

     site n.  atom      mass           positions (alat units)
        1     Ca  40.0780   tau(    1) = (    0.00000    0.00000   -0.00000  )
        2     H    1.0079   tau(    2) = (    0.28865   -0.00002   -0.57734  )
        3     H    1.0079   tau(    3) = (    0.28866    0.57735    0.00002  )
        4     H    1.0079   tau(    4) = (    0.57731    0.28867    0.00001  )
        5     H    1.0079   tau(    5) = (   -0.00001    0.28865   -0.57732  )
        6     H    1.0079   tau(    6) = (    0.57731   -0.00000   -0.28866  )
        7     H    1.0079   tau(    7) = (   -0.00000    0.57733   -0.28865  )

     Computing dynamical matrix for 
                    q = (  -0.0000002   0.4330147  -0.0000148 )
 
     No symmetry!

     G cutoff =  222.9776  (    539 G-vectors)     FFT grid: ( 30, 30, 30)
     number of k points=  1024

     PseudoPot. # 1 for H  read from file:
     ./H.UPF
     MD5 check sum: df8e43189db5a2d7f03d0dd74d71ce72
     Pseudo is Norm-conserving, Zval =  1.0
     Generated in analytical, separable form
     Using radial grid of  929 points,  0 beta functions with: 

     PseudoPot. # 2 for Ca read from file:
     ./Ca.UPF
     MD5 check sum: 3d0b95105a6fbfe7d4b72bf2bbe3cdff
     Pseudo is Norm-conserving, Zval =  2.0
     Generated in analytical, separable form
     Using radial grid of 1169 points,  6 beta functions with: 
                l(1) =   0
                l(2) =   0
                l(3) =   0
                l(4) =   1
                l(5) =   1
                l(6) =   2

     Mode symmetry, C_1 (1)     point group:


     Atomic displacements:
     There are   21 irreducible representations

     Representation     1      1 modes -  To be done

     Representation     2      1 modes -  To be done

     Representation     3      1 modes -  To be done

     Representation     4      1 modes -  To be done

     Representation     5      1 modes -  To be done

     Representation     6      1 modes -  To be done

     Representation     7      1 modes -  To be done

     Representation     8      1 modes -  To be done

     Representation     9      1 modes -  To be done

     Representation    10      1 modes -  To be done

     Representation    11      1 modes -  To be done

     Representation    12      1 modes -  To be done

     Representation    13      1 modes -  To be done

     Representation    14      1 modes -  To be done

     Representation    15      1 modes -  To be done

     Representation    16      1 modes -  To be done

     Representation    17      1 modes -  To be done

     Representation    18      1 modes -  To be done

     Representation    19      1 modes -  To be done

     Representation    20      1 modes -  To be done

     Representation    21      1 modes -  To be done



     Alpha used in Ewald sum =   2.8000
     PHONON       :   9m 4.11s CPU  10m11.59s WALL



     Representation #   1 mode #   1

     Self-consistent Calculation

      iter #   1 total cpu time :   614.2 secs   av.it.:   3.2
      thresh= 1.000E-02 alpha_mix =  0.700 |ddv_scf|^2 =  1.128E-05

      iter #   2 total cpu time :   618.2 secs   av.it.:   6.0
      thresh= 3.359E-04 alpha_mix =  0.700 |ddv_scf|^2 =  1.387E-04

      iter #   3 total cpu time :   621.6 secs   av.it.:   4.9
      thresh= 1.178E-03 alpha_mix =  0.700 |ddv_scf|^2 =  1.155E-08

      iter #   4 total cpu time :   625.7 secs   av.it.:   6.3
      thresh= 1.075E-05 alpha_mix =  0.700 |ddv_scf|^2 =  2.100E-10

     End of self-consistent calculation

     Convergence has been achieved 


     Representation #   2 mode #   2

     Self-consistent Calculation

      iter #   1 total cpu time :   629.6 secs   av.it.:   3.2
      thresh= 1.000E-02 alpha_mix =  0.700 |ddv_scf|^2 =  1.273E-05

      iter #   2 total cpu time :   633.6 secs   av.it.:   6.0
      thresh= 3.568E-04 alpha_mix =  0.700 |ddv_scf|^2 =  1.570E-04

      iter #   3 total cpu time :   637.0 secs   av.it.:   4.9
      thresh= 1.253E-03 alpha_mix =  0.700 |ddv_scf|^2 =  1.135E-08

      iter #   4 total cpu time :   641.2 secs   av.it.:   6.4
      thresh= 1.065E-05 alpha_mix =  0.700 |ddv_scf|^2 =  2.259E-10

     End of self-consistent calculation

     Convergence has been achieved 


     Representation #   3 mode #   3

     Self-consistent Calculation

      iter #   1 total cpu time :   644.8 secs   av.it.:   3.2
      thresh= 1.000E-02 alpha_mix =  0.700 |ddv_scf|^2 =  4.846E-06

      iter #   2 total cpu time :   648.8 secs   av.it.:   6.1
      thresh= 2.201E-04 alpha_mix =  0.700 |ddv_scf|^2 =  5.831E-05

      iter #   3 total cpu time :   652.3 secs   av.it.:   4.9
      thresh= 7.636E-04 alpha_mix =  0.700 |ddv_scf|^2 =  1.625E-08

      iter #   4 total cpu time :   657.1 secs   av.it.:   6.3
      thresh= 1.275E-05 alpha_mix =  0.700 |ddv_scf|^2 =  2.349E-10

     End of self-consistent calculation

     Convergence has been achieved 


     Representation #   4 mode #   4

     Self-consistent Calculation

      iter #   1 total cpu time :   659.9 secs   av.it.:   3.1
      thresh= 1.000E-02 alpha_mix =  0.700 |ddv_scf|^2 =  2.367E-06

      iter #   2 total cpu time :   663.9 secs   av.it.:   6.1
      thresh= 1.538E-04 alpha_mix =  0.700 |ddv_scf|^2 =  2.540E-05

      iter #   3 total cpu time :   667.3 secs   av.it.:   4.9
      thresh= 5.040E-04 alpha_mix =  0.700 |ddv_scf|^2 =  4.629E-08

      iter #   4 total cpu time :   671.2 secs   av.it.:   5.9
      thresh= 2.152E-05 alpha_mix =  0.700 |ddv_scf|^2 =  1.643E-10

     End of self-consistent calculation

     Convergence has been achieved 


     Representation #   5 mode #   5

     Self-consistent Calculation

      iter #   1 total cpu time :   675.0 secs   av.it.:   3.5
      thresh= 1.000E-02 alpha_mix =  0.700 |ddv_scf|^2 =  2.040E-05

      iter #   2 total cpu time :   679.0 secs   av.it.:   6.0
      thresh= 4.517E-04 alpha_mix =  0.700 |ddv_scf|^2 =  2.482E-04

      iter #   3 total cpu time :   682.4 secs   av.it.:   4.9
      thresh= 1.576E-03 alpha_mix =  0.700 |ddv_scf|^2 =  3.338E-08

      iter #   4 total cpu time :   686.4 secs   av.it.:   6.2
      thresh= 1.827E-05 alpha_mix =  0.700 |ddv_scf|^2 =  5.439E-10

     End of self-consistent calculation

     Convergence has been achieved 


     Representation #   6 mode #   6

     Self-consistent Calculation

      iter #   1 total cpu time :   689.3 secs   av.it.:   3.3
      thresh= 1.000E-02 alpha_mix =  0.700 |ddv_scf|^2 =  2.701E-05

      iter #   2 total cpu time :   693.3 secs   av.it.:   6.0
      thresh= 5.197E-04 alpha_mix =  0.700 |ddv_scf|^2 =  3.404E-04

      iter #   3 total cpu time :   696.9 secs   av.it.:   4.9
      thresh= 1.845E-03 alpha_mix =  0.700 |ddv_scf|^2 =  1.032E-08

      iter #   4 total cpu time :   701.7 secs   av.it.:   6.7
      thresh= 1.016E-05 alpha_mix =  0.700 |ddv_scf|^2 =  6.891E-10

     End of self-consistent calculation

     Convergence has been achieved 


     Representation #   7 mode #   7

     Self-consistent Calculation

      iter #   1 total cpu time :   704.7 secs   av.it.:   3.3
      thresh= 1.000E-02 alpha_mix =  0.700 |ddv_scf|^2 =  1.811E-05

      iter #   2 total cpu time :   708.6 secs   av.it.:   6.0
      thresh= 4.256E-04 alpha_mix =  0.700 |ddv_scf|^2 =  2.273E-04

      iter #   3 total cpu time :   712.1 secs   av.it.:   4.9
      thresh= 1.508E-03 alpha_mix =  0.700 |ddv_scf|^2 =  9.775E-09

     End of self-consistent calculation

     Convergence has been achieved 


     Representation #   8 mode #   8

     Self-consistent Calculation

      iter #   1 total cpu time :   714.9 secs   av.it.:   3.2
      thresh= 1.000E-02 alpha_mix =  0.700 |ddv_scf|^2 =  8.422E-06

      iter #   2 total cpu time :   720.1 secs   av.it.:   6.0
      thresh= 2.902E-04 alpha_mix =  0.700 |ddv_scf|^2 =  1.026E-04

      iter #   3 total cpu time :   723.5 secs   av.it.:   4.9
      thresh= 1.013E-03 alpha_mix =  0.700 |ddv_scf|^2 =  1.257E-08

      iter #   4 total cpu time :   727.6 secs   av.it.:   6.3
      thresh= 1.121E-05 alpha_mix =  0.700 |ddv_scf|^2 =  1.720E-10

     End of self-consistent calculation

     Convergence has been achieved 


     Representation #   9 mode #   9

     Self-consistent Calculation

      iter #   1 total cpu time :   730.4 secs   av.it.:   3.2
      thresh= 1.000E-02 alpha_mix =  0.700 |ddv_scf|^2 =  1.042E-05

      iter #   2 total cpu time :   734.4 secs   av.it.:   6.0
      thresh= 3.228E-04 alpha_mix =  0.700 |ddv_scf|^2 =  1.279E-04

      iter #   3 total cpu time :   737.8 secs   av.it.:   4.9
      thresh= 1.131E-03 alpha_mix =  0.700 |ddv_scf|^2 =  1.166E-08

      iter #   4 total cpu time :   742.0 secs   av.it.:   6.3
      thresh= 1.080E-05 alpha_mix =  0.700 |ddv_scf|^2 =  2.003E-10

     End of self-consistent calculation

     Convergence has been achieved 


     Representation #  10 mode #  10

     Self-consistent Calculation

      iter #   1 total cpu time :   745.8 secs   av.it.:   3.2
      thresh= 1.000E-02 alpha_mix =  0.700 |ddv_scf|^2 =  1.346E-05

      iter #   2 total cpu time :   749.8 secs   av.it.:   6.0
      thresh= 3.669E-04 alpha_mix =  0.700 |ddv_scf|^2 =  1.662E-04

      iter #   3 total cpu time :   753.2 secs   av.it.:   4.9
      thresh= 1.289E-03 alpha_mix =  0.700 |ddv_scf|^2 =  1.100E-08

      iter #   4 total cpu time :   757.4 secs   av.it.:   6.4
      thresh= 1.049E-05 alpha_mix =  0.700 |ddv_scf|^2 =  2.393E-10

     End of self-consistent calculation

     Convergence has been achieved 


     Representation #  11 mode #  11

     Self-consistent Calculation

      iter #   1 total cpu time :   760.2 secs   av.it.:   3.3
      thresh= 1.000E-02 alpha_mix =  0.700 |ddv_scf|^2 =  1.308E-05

      iter #   2 total cpu time :   771.2 secs   av.it.:   6.0
      thresh= 3.617E-04 alpha_mix =  0.700 |ddv_scf|^2 =  1.613E-04

      iter #   3 total cpu time :   774.6 secs   av.it.:   4.9
      thresh= 1.270E-03 alpha_mix =  0.700 |ddv_scf|^2 =  1.457E-08

      iter #   4 total cpu time :   779.7 secs   av.it.:   6.4
      thresh= 1.207E-05 alpha_mix =  0.700 |ddv_scf|^2 =  2.694E-10

     End of self-consistent calculation

     Convergence has been achieved 


     Representation #  12 mode #  12

     Self-consistent Calculation

      iter #   1 total cpu time :   783.3 secs   av.it.:   3.2
      thresh= 1.000E-02 alpha_mix =  0.700 |ddv_scf|^2 =  5.368E-06

      iter #   2 total cpu time :   787.6 secs   av.it.:   6.0
      thresh= 2.317E-04 alpha_mix =  0.700 |ddv_scf|^2 =  6.374E-05

      iter #   3 total cpu time :   791.1 secs   av.it.:   4.9
      thresh= 7.983E-04 alpha_mix =  0.700 |ddv_scf|^2 =  1.933E-08

      iter #   4 total cpu time :   795.1 secs   av.it.:   6.2
      thresh= 1.390E-05 alpha_mix =  0.700 |ddv_scf|^2 =  1.415E-10

     End of self-consistent calculation

     Convergence has been achieved 


     Representation #  13 mode #  13

     Self-consistent Calculation

      iter #   1 total cpu time :   798.0 secs   av.it.:   3.3
      thresh= 1.000E-02 alpha_mix =  0.700 |ddv_scf|^2 =  2.531E-05

      iter #   2 total cpu time :   801.9 secs   av.it.:   6.0
      thresh= 5.031E-04 alpha_mix =  0.700 |ddv_scf|^2 =  3.171E-04

      iter #   3 total cpu time :   805.4 secs   av.it.:   4.9
      thresh= 1.781E-03 alpha_mix =  0.700 |ddv_scf|^2 =  7.704E-09

     End of self-consistent calculation

     Convergence has been achieved 


     Representation #  14 mode #  14

     Self-consistent Calculation

      iter #   1 total cpu time :   808.4 secs   av.it.:   3.5
      thresh= 1.000E-02 alpha_mix =  0.700 |ddv_scf|^2 =  8.669E-06

      iter #   2 total cpu time :   813.0 secs   av.it.:   6.0
      thresh= 2.944E-04 alpha_mix =  0.700 |ddv_scf|^2 =  1.029E-04

      iter #   3 total cpu time :   816.5 secs   av.it.:   4.9
      thresh= 1.014E-03 alpha_mix =  0.700 |ddv_scf|^2 =  3.209E-08

      iter #   4 total cpu time :   820.4 secs   av.it.:   6.1
      thresh= 1.791E-05 alpha_mix =  0.700 |ddv_scf|^2 =  4.143E-10

     End of self-consistent calculation

     Convergence has been achieved 


     Representation #  15 mode #  15

     Self-consistent Calculation

      iter #   1 total cpu time :   823.2 secs   av.it.:   3.2
      thresh= 1.000E-02 alpha_mix =  0.700 |ddv_scf|^2 =  1.229E-05

      iter #   2 total cpu time :   827.2 secs   av.it.:   6.0
      thresh= 3.506E-04 alpha_mix =  0.700 |ddv_scf|^2 =  1.510E-04

      iter #   3 total cpu time :   831.1 secs   av.it.:   4.9
      thresh= 1.229E-03 alpha_mix =  0.700 |ddv_scf|^2 =  1.392E-08

      iter #   4 total cpu time :   835.2 secs   av.it.:   6.4
      thresh= 1.180E-05 alpha_mix =  0.700 |ddv_scf|^2 =  2.210E-10

     End of self-consistent calculation

     Convergence has been achieved 


     Representation #  16 mode #  16

     Self-consistent Calculation

      iter #   1 total cpu time :   838.0 secs   av.it.:   3.3
      thresh= 1.000E-02 alpha_mix =  0.700 |ddv_scf|^2 =  1.510E-05

      iter #   2 total cpu time :   842.0 secs   av.it.:   6.0
      thresh= 3.886E-04 alpha_mix =  0.700 |ddv_scf|^2 =  1.882E-04

      iter #   3 total cpu time :   845.4 secs   av.it.:   4.9
      thresh= 1.372E-03 alpha_mix =  0.700 |ddv_scf|^2 =  8.898E-09

     End of self-consistent calculation

     Convergence has been achieved 


     Representation #  17 mode #  17

     Self-consistent Calculation

      iter #   1 total cpu time :   860.2 secs   av.it.:   3.2
      thresh= 1.000E-02 alpha_mix =  0.700 |ddv_scf|^2 =  1.000E-05

      iter #   2 total cpu time :   864.2 secs   av.it.:   6.0
      thresh= 3.163E-04 alpha_mix =  0.700 |ddv_scf|^2 =  1.226E-04

      iter #   3 total cpu time :   867.6 secs   av.it.:   4.9
      thresh= 1.107E-03 alpha_mix =  0.700 |ddv_scf|^2 =  1.174E-08

      iter #   4 total cpu time :   871.7 secs   av.it.:   6.4
      thresh= 1.083E-05 alpha_mix =  0.700 |ddv_scf|^2 =  1.937E-10

     End of self-consistent calculation

     Convergence has been achieved 


     Representation #  18 mode #  18

     Self-consistent Calculation

      iter #   1 total cpu time :   874.8 secs   av.it.:   3.7
      thresh= 1.000E-02 alpha_mix =  0.700 |ddv_scf|^2 =  6.653E-05

      iter #   2 total cpu time :   879.4 secs   av.it.:   5.9
      thresh= 8.157E-04 alpha_mix =  0.700 |ddv_scf|^2 =  8.194E-04

      iter #   3 total cpu time :   882.8 secs   av.it.:   4.9
      thresh= 2.862E-03 alpha_mix =  0.700 |ddv_scf|^2 =  5.568E-08

      iter #   4 total cpu time :   886.9 secs   av.it.:   6.2
      thresh= 2.360E-05 alpha_mix =  0.700 |ddv_scf|^2 =  1.220E-09

     End of self-consistent calculation

     Convergence has been achieved 


     Representation #  19 mode #  19

     Self-consistent Calculation

      iter #   1 total cpu time :   889.7 secs   av.it.:   3.1
      thresh= 1.000E-02 alpha_mix =  0.700 |ddv_scf|^2 =  2.623E-06

      iter #   2 total cpu time :   893.7 secs   av.it.:   6.1
      thresh= 1.620E-04 alpha_mix =  0.700 |ddv_scf|^2 =  2.939E-05

      iter #   3 total cpu time :   897.2 secs   av.it.:   4.9
      thresh= 5.422E-04 alpha_mix =  0.700 |ddv_scf|^2 =  3.053E-08

      iter #   4 total cpu time :   901.8 secs   av.it.:   6.1
      thresh= 1.747E-05 alpha_mix =  0.700 |ddv_scf|^2 =  1.858E-10

     End of self-consistent calculation

     Convergence has been achieved 


     Representation #  20 mode #  20

     Self-consistent Calculation

      iter #   1 total cpu time :   904.6 secs   av.it.:   3.2
      thresh= 1.000E-02 alpha_mix =  0.700 |ddv_scf|^2 =  5.368E-06

      iter #   2 total cpu time :   908.6 secs   av.it.:   6.1
      thresh= 2.317E-04 alpha_mix =  0.700 |ddv_scf|^2 =  6.560E-05

      iter #   3 total cpu time :   912.0 secs   av.it.:   4.9
      thresh= 8.099E-04 alpha_mix =  0.700 |ddv_scf|^2 =  1.590E-08

      iter #   4 total cpu time :   916.1 secs   av.it.:   6.4
      thresh= 1.261E-05 alpha_mix =  0.700 |ddv_scf|^2 =  2.563E-10

     End of self-consistent calculation

     Convergence has been achieved 


     Representation #  21 mode #  21

     Self-consistent Calculation

      iter #   1 total cpu time :   918.9 secs   av.it.:   3.1
      thresh= 1.000E-02 alpha_mix =  0.700 |ddv_scf|^2 =  6.568E-07

      iter #   2 total cpu time :   923.6 secs   av.it.:   6.2
      thresh= 8.104E-05 alpha_mix =  0.700 |ddv_scf|^2 =  3.749E-06

      iter #   3 total cpu time :   927.1 secs   av.it.:   5.0
      thresh= 1.936E-04 alpha_mix =  0.700 |ddv_scf|^2 =  2.188E-07

      iter #   4 total cpu time :   930.8 secs   av.it.:   5.3
      thresh= 4.677E-05 alpha_mix =  0.700 |ddv_scf|^2 =  2.012E-10

     End of self-consistent calculation

     Convergence has been achieved 
 
     Number of q in the star =    2
     List of q in the star:
          1  -0.000000233   0.433014750  -0.000014834
          2   0.000000233  -0.433014750   0.000014834

     Diagonalizing the dynamical matrix

     q = (   -0.000000233   0.433014750  -0.000014834 ) 

 **************************************************************************
     freq (    1) =       4.800828 [THz] =     160.138380 [cm-1]
     freq (    2) =       6.608593 [THz] =     220.438933 [cm-1]
     freq (    3) =       7.366595 [THz] =     245.723154 [cm-1]
     freq (    4) =      14.834409 [THz] =     494.822616 [cm-1]
     freq (    5) =      18.850604 [THz] =     628.788457 [cm-1]
     freq (    6) =      19.442519 [THz] =     648.532626 [cm-1]
     freq (    7) =      21.441023 [THz] =     715.195540 [cm-1]
     freq (    8) =      22.871101 [THz] =     762.897807 [cm-1]
     freq (    9) =      27.777384 [THz] =     926.553791 [cm-1]
     freq (   10) =      27.938717 [THz] =     931.935297 [cm-1]
     freq (   11) =      29.997551 [THz] =    1000.610591 [cm-1]
     freq (   12) =      32.692180 [THz] =    1090.493759 [cm-1]
     freq (   13) =      35.314909 [THz] =    1177.978569 [cm-1]
     freq (   14) =      37.162496 [THz] =    1239.607452 [cm-1]
     freq (   15) =      38.227684 [THz] =    1275.138284 [cm-1]
     freq (   16) =      40.276428 [THz] =    1343.477012 [cm-1]
     freq (   17) =      42.567289 [THz] =    1419.891922 [cm-1]
     freq (   18) =      47.233742 [THz] =    1575.548027 [cm-1]
     freq (   19) =      48.826001 [THz] =    1628.660082 [cm-1]
     freq (   20) =      57.252416 [THz] =    1909.735029 [cm-1]
     freq (   21) =      69.252296 [THz] =    2310.007959 [cm-1]
 **************************************************************************

     Mode symmetry, C_1 (1)     point group:

     freq (   1-   1) =        160.1  [cm-1]   --> A                  
     freq (   2-   2) =        220.4  [cm-1]   --> A                  
     freq (   3-   3) =        245.7  [cm-1]   --> A                  
     freq (   4-   4) =        494.8  [cm-1]   --> A                  
     freq (   5-   5) =        628.8  [cm-1]   --> A                  
     freq (   6-   6) =        648.5  [cm-1]   --> A                  
     freq (   7-   7) =        715.2  [cm-1]   --> A                  
     freq (   8-   8) =        762.9  [cm-1]   --> A                  
     freq (   9-   9) =        926.6  [cm-1]   --> A                  
     freq (  10-  10) =        931.9  [cm-1]   --> A                  
     freq (  11-  11) =       1000.6  [cm-1]   --> A                  
     freq (  12-  12) =       1090.5  [cm-1]   --> A                  
     freq (  13-  13) =       1178.0  [cm-1]   --> A                  
     freq (  14-  14) =       1239.6  [cm-1]   --> A                  
     freq (  15-  15) =       1275.1  [cm-1]   --> A                  
     freq (  16-  16) =       1343.5  [cm-1]   --> A                  
     freq (  17-  17) =       1419.9  [cm-1]   --> A                  
     freq (  18-  18) =       1575.5  [cm-1]   --> A                  
     freq (  19-  19) =       1628.7  [cm-1]   --> A                  
     freq (  20-  20) =       1909.7  [cm-1]   --> A                  
     freq (  21-  21) =       2310.0  [cm-1]   --> A                  

     Calculation of q =   -0.0000042  -0.0000148   0.4330207
     [opt_tetra]  Optimized tetrahedron method is used.
 
     Parallelization info
     --------------------
     sticks:   dense  smooth     PW     G-vecs:    dense   smooth      PW
     Min          32      32     13                  536      536     128
     Max          33      33     14                  539      539     131
     Sum         657     657    261                10761    10761    2587
 
     Using Slab Decomposition
 

     Title: 
     Electron-phonon coefficients for CaH6                                      


     bravais-lattice index     =            0
     lattice parameter (alat)  =       5.2449  a.u.
     unit-cell volume          =     111.0570 (a.u.)^3
     number of atoms/cell      =            7
     number of atomic types    =            2
     number of electrons       =         8.00
     number of Kohn-Sham states=            8
     kinetic-energy cutoff     =      80.0000  Ry
     charge density cutoff     =     320.0000  Ry
     Exchange-correlation= PZ
                           (   1   1   0   0   0   0   0)

     celldm(1)=   5.244879  celldm(2)=   0.000000  celldm(3)=   0.000000
     celldm(4)=   0.000000  celldm(5)=   0.000000  celldm(6)=   0.000000

     crystal axes: (cart. coord. in units of alat)
               a(1) = (   0.577318   0.577368   0.577365 )  
               a(2) = (   0.577306  -0.577367  -0.577354 )  
               a(3) = (  -0.577318   0.577327  -0.577325 )  

     reciprocal axes: (cart. coord. in units 2 pi/alat)
               b(1) = (  0.866082  0.866029 -0.000038 )  
               b(2) = (  0.866091  0.000029 -0.866050 )  
               b(3) = (  0.000008  0.866059 -0.866071 )  


     PseudoPot. # 1 for H  read from file:
     ./H.UPF
     MD5 check sum: df8e43189db5a2d7f03d0dd74d71ce72
     Pseudo is Norm-conserving, Zval =  1.0
     Generated in analytical, separable form
     Using radial grid of  929 points,  0 beta functions with: 

     PseudoPot. # 2 for Ca read from file:
     ./Ca.UPF
     MD5 check sum: 3d0b95105a6fbfe7d4b72bf2bbe3cdff
     Pseudo is Norm-conserving, Zval =  2.0
     Generated in analytical, separable form
     Using radial grid of 1169 points,  6 beta functions with: 
                l(1) =   0
                l(2) =   0
                l(3) =   0
                l(4) =   1
                l(5) =   1
                l(6) =   2

     atomic species   valence    mass     pseudopotential
        H              1.00     1.00794     H ( 1.00)
        Ca             2.00    40.07800     Ca( 1.00)

      2 Sym. Ops., with inversion, found



   Cartesian axes

     site n.     atom                  positions (alat units)
         1           Ca  tau(   1) = (   0.0000005   0.0000001  -0.0000000  )
         2           H   tau(   2) = (   0.2886505  -0.0000192  -0.5773350  )
         3           H   tau(   3) = (   0.2886562   0.5773474   0.0000208  )
         4           H   tau(   4) = (   0.5773123   0.2886735   0.0000090  )
         5           H   tau(   5) = (  -0.0000054   0.2886546  -0.5773232  )
         6           H   tau(   6) = (   0.5773075  -0.0000030  -0.2886636  )
[...]
      thresh= 1.142E-03 alpha_mix =  0.700 |ddv_scf|^2 =  1.167E-08

      iter #   4 total cpu time :  1010.4 secs   av.it.:   6.4
      thresh= 1.080E-05 alpha_mix =  0.700 |ddv_scf|^2 =  2.043E-10

     End of self-consistent calculation

     Convergence has been achieved 


     Representation #   5 mode #   5

     Self-consistent Calculation

      iter #   1 total cpu time :  1013.9 secs   av.it.:   3.7
      thresh= 1.000E-02 alpha_mix =  0.700 |ddv_scf|^2 =  6.852E-05

      iter #   2 total cpu time :  1017.9 secs   av.it.:   5.9
      thresh= 8.277E-04 alpha_mix =  0.700 |ddv_scf|^2 =  8.255E-04

      iter #   3 total cpu time :  1021.4 secs   av.it.:   4.9
      thresh= 2.873E-03 alpha_mix =  0.700 |ddv_scf|^2 =  5.699E-08

      iter #   4 total cpu time :  1025.5 secs   av.it.:   6.2
      thresh= 2.387E-05 alpha_mix =  0.700 |ddv_scf|^2 =  1.228E-09

     End of self-consistent calculation

     Convergence has been achieved 


     Representation #   6 mode #   6

     Self-consistent Calculation

      iter #   1 total cpu time :  1028.3 secs   av.it.:   3.1
      thresh= 1.000E-02 alpha_mix =  0.700 |ddv_scf|^2 =  3.100E-06

      iter #   2 total cpu time :  1032.3 secs   av.it.:   6.0
      thresh= 1.761E-04 alpha_mix =  0.700 |ddv_scf|^2 =  3.457E-05

      iter #   3 total cpu time :  1045.4 secs   av.it.:   4.9
      thresh= 5.880E-04 alpha_mix =  0.700 |ddv_scf|^2 =  2.168E-08

      iter #   4 total cpu time :  1049.4 secs   av.it.:   6.0
      thresh= 1.472E-05 alpha_mix =  0.700 |ddv_scf|^2 =  1.065E-10

     End of self-consistent calculation

     Convergence has been achieved 


     Representation #   7 mode #   7

     Self-consistent Calculation

      iter #   1 total cpu time :  1053.4 secs   av.it.:   3.2
      thresh= 1.000E-02 alpha_mix =  0.700 |ddv_scf|^2 =  1.208E-05

      iter #   2 total cpu time :  1057.4 secs   av.it.:   6.0
      thresh= 3.476E-04 alpha_mix =  0.700 |ddv_scf|^2 =  1.459E-04

      iter #   3 total cpu time :  1061.4 secs   av.it.:   4.9
      thresh= 1.208E-03 alpha_mix =  0.700 |ddv_scf|^2 =  1.039E-08

      iter #   4 total cpu time :  1065.6 secs   av.it.:   6.5
      thresh= 1.019E-05 alpha_mix =  0.700 |ddv_scf|^2 =  2.082E-10

     End of self-consistent calculation

     Convergence has been achieved 


     Representation #   8 mode #   8

     Self-consistent Calculation

      iter #   1 total cpu time :  1068.5 secs   av.it.:   3.3
      thresh= 1.000E-02 alpha_mix =  0.700 |ddv_scf|^2 =  1.972E-05

      iter #   2 total cpu time :  1072.5 secs   av.it.:   6.0
      thresh= 4.441E-04 alpha_mix =  0.700 |ddv_scf|^2 =  2.421E-04

      iter #   3 total cpu time :  1076.0 secs   av.it.:   4.9
      thresh= 1.556E-03 alpha_mix =  0.700 |ddv_scf|^2 =  1.084E-08

      iter #   4 total cpu time :  1081.8 secs   av.it.:   6.6
      thresh= 1.041E-05 alpha_mix =  0.700 |ddv_scf|^2 =  4.658E-10

     End of self-consistent calculation

     Convergence has been achieved 


     Representation #   9 mode #   9

     Self-consistent Calculation

      iter #   1 total cpu time :  1084.7 secs   av.it.:   3.2
      thresh= 1.000E-02 alpha_mix =  0.700 |ddv_scf|^2 =  8.998E-06

      iter #   2 total cpu time :  1088.8 secs   av.it.:   6.0
      thresh= 3.000E-04 alpha_mix =  0.700 |ddv_scf|^2 =  1.079E-04

      iter #   3 total cpu time :  1092.2 secs   av.it.:   4.9
      thresh= 1.039E-03 alpha_mix =  0.700 |ddv_scf|^2 =  1.362E-08

      iter #   4 total cpu time :  1096.4 secs   av.it.:   6.4
      thresh= 1.167E-05 alpha_mix =  0.700 |ddv_scf|^2 =  2.384E-10

     End of self-consistent calculation

     Convergence has been achieved 


     Representation #  10 mode #  10

     Self-consistent Calculation

      iter #   1 total cpu time :  1099.7 secs   av.it.:   3.1
      thresh= 1.000E-02 alpha_mix =  0.700 |ddv_scf|^2 =  1.678E-06

      iter #   2 total cpu time :  1103.7 secs   av.it.:   6.1
      thresh= 1.295E-04 alpha_mix =  0.700 |ddv_scf|^2 =  1.625E-05

      iter #   3 total cpu time :  1107.2 secs   av.it.:   5.0
      thresh= 4.031E-04 alpha_mix =  0.700 |ddv_scf|^2 =  6.772E-08

      iter #   4 total cpu time :  1111.1 secs   av.it.:   5.7
      thresh= 2.602E-05 alpha_mix =  0.700 |ddv_scf|^2 =  1.755E-10

     End of self-consistent calculation

     Convergence has been achieved 


     Representation #  11 mode #  11

     Self-consistent Calculation

      iter #   1 total cpu time :  1113.9 secs   av.it.:   3.2
      thresh= 1.000E-02 alpha_mix =  0.700 |ddv_scf|^2 =  6.016E-06

      iter #   2 total cpu time :  1118.0 secs   av.it.:   6.1
      thresh= 2.453E-04 alpha_mix =  0.700 |ddv_scf|^2 =  7.232E-05

      iter #   3 total cpu time :  1121.5 secs   av.it.:   4.9
      thresh= 8.504E-04 alpha_mix =  0.700 |ddv_scf|^2 =  1.313E-08

      iter #   4 total cpu time :  1126.3 secs   av.it.:   6.4
      thresh= 1.146E-05 alpha_mix =  0.700 |ddv_scf|^2 =  2.798E-10

     End of self-consistent calculation

     Convergence has been achieved 


     Representation #  12 mode #  12

     Self-consistent Calculation

      iter #   1 total cpu time :  1129.1 secs   av.it.:   3.1
      thresh= 1.000E-02 alpha_mix =  0.700 |ddv_scf|^2 =  5.462E-06

      iter #   2 total cpu time :  1133.1 secs   av.it.:   6.0
      thresh= 2.337E-04 alpha_mix =  0.700 |ddv_scf|^2 =  6.376E-05

      iter #   3 total cpu time :  1136.6 secs   av.it.:   4.9
      thresh= 7.985E-04 alpha_mix =  0.700 |ddv_scf|^2 =  1.530E-08

      iter #   4 total cpu time :  1140.7 secs   av.it.:   6.2
      thresh= 1.237E-05 alpha_mix =  0.700 |ddv_scf|^2 =  1.368E-10

     End of self-consistent calculation

     Convergence has been achieved 


     Representation #  13 mode #  13

     Self-consistent Calculation

      iter #   1 total cpu time :  1143.4 secs   av.it.:   3.0
      thresh= 1.000E-02 alpha_mix =  0.700 |ddv_scf|^2 =  1.173E-06

      iter #   2 total cpu time :  1148.0 secs   av.it.:   6.1
      thresh= 1.083E-04 alpha_mix =  0.700 |ddv_scf|^2 =  1.074E-05

      iter #   3 total cpu time :  1151.5 secs   av.it.:   5.0
      thresh= 3.278E-04 alpha_mix =  0.700 |ddv_scf|^2 =  5.320E-08

      iter #   4 total cpu time :  1155.3 secs   av.it.:   5.6
      thresh= 2.306E-05 alpha_mix =  0.700 |ddv_scf|^2 =  8.267E-11

     End of self-consistent calculation

     Convergence has been achieved 


     Representation #  14 mode #  14

     Self-consistent Calculation

      iter #   1 total cpu time :  1158.5 secs   av.it.:   3.5
      thresh= 1.000E-02 alpha_mix =  0.700 |ddv_scf|^2 =  1.297E-05

      iter #   2 total cpu time :  1162.6 secs   av.it.:   6.0
      thresh= 3.601E-04 alpha_mix =  0.700 |ddv_scf|^2 =  1.527E-04

      iter #   3 total cpu time :  1166.1 secs   av.it.:   4.9
      thresh= 1.236E-03 alpha_mix =  0.700 |ddv_scf|^2 =  3.195E-08

      iter #   4 total cpu time :  1170.5 secs   av.it.:   6.1
      thresh= 1.787E-05 alpha_mix =  0.700 |ddv_scf|^2 =  4.565E-10

     End of self-consistent calculation

     Convergence has been achieved 


     Representation #  15 mode #  15

     Self-consistent Calculation

      iter #   1 total cpu time :  1173.4 secs   av.it.:   3.2
      thresh= 1.000E-02 alpha_mix =  0.700 |ddv_scf|^2 =  1.191E-05

      iter #   2 total cpu time :  1177.4 secs   av.it.:   6.0
      thresh= 3.451E-04 alpha_mix =  0.700 |ddv_scf|^2 =  1.451E-04

      iter #   3 total cpu time :  1180.9 secs   av.it.:   4.9
      thresh= 1.204E-03 alpha_mix =  0.700 |ddv_scf|^2 =  1.097E-08

      iter #   4 total cpu time :  1185.2 secs   av.it.:   6.5
      thresh= 1.047E-05 alpha_mix =  0.700 |ddv_scf|^2 =  3.364E-10

     End of self-consistent calculation

     Convergence has been achieved 


     Representation #  16 mode #  16

     Self-consistent Calculation

      iter #   1 total cpu time :  1188.0 secs   av.it.:   3.3
      thresh= 1.000E-02 alpha_mix =  0.700 |ddv_scf|^2 =  1.602E-05

      iter #   2 total cpu time :  1192.4 secs   av.it.:   6.0
      thresh= 4.003E-04 alpha_mix =  0.700 |ddv_scf|^2 =  1.962E-04

      iter #   3 total cpu time :  1195.9 secs   av.it.:   4.9
      thresh= 1.401E-03 alpha_mix =  0.700 |ddv_scf|^2 =  8.920E-09

     End of self-consistent calculation

     Convergence has been achieved 


     Representation #  17 mode #  17

     Self-consistent Calculation

      iter #   1 total cpu time :  1198.9 secs   av.it.:   3.3
      thresh= 1.000E-02 alpha_mix =  0.700 |ddv_scf|^2 =  2.011E-05

      iter #   2 total cpu time :  1202.9 secs   av.it.:   6.0
      thresh= 4.484E-04 alpha_mix =  0.700 |ddv_scf|^2 =  2.475E-04

      iter #   3 total cpu time :  1207.8 secs   av.it.:   4.9
      thresh= 1.573E-03 alpha_mix =  0.700 |ddv_scf|^2 =  1.215E-08

      iter #   4 total cpu time :  1212.1 secs   av.it.:   6.6
      thresh= 1.102E-05 alpha_mix =  0.700 |ddv_scf|^2 =  5.091E-10

     End of self-consistent calculation

     Convergence has been achieved 


     Representation #  18 mode #  18

     Self-consistent Calculation

      iter #   1 total cpu time :  1215.5 secs   av.it.:   3.5
      thresh= 1.000E-02 alpha_mix =  0.700 |ddv_scf|^2 =  1.130E-05

      iter #   2 total cpu time :  1219.5 secs   av.it.:   6.0
      thresh= 3.361E-04 alpha_mix =  0.700 |ddv_scf|^2 =  1.325E-04

      iter #   3 total cpu time :  1223.0 secs   av.it.:   4.9
      thresh= 1.151E-03 alpha_mix =  0.700 |ddv_scf|^2 =  3.122E-08

      iter #   4 total cpu time :  1227.0 secs   av.it.:   6.1
      thresh= 1.767E-05 alpha_mix =  0.700 |ddv_scf|^2 =  4.342E-10

     End of self-consistent calculation

     Convergence has been achieved 


     Representation #  19 mode #  19

     Self-consistent Calculation

      iter #   1 total cpu time :  1229.9 secs   av.it.:   3.2
      thresh= 1.000E-02 alpha_mix =  0.700 |ddv_scf|^2 =  8.491E-06

      iter #   2 total cpu time :  1233.9 secs   av.it.:   6.0
      thresh= 2.914E-04 alpha_mix =  0.700 |ddv_scf|^2 =  1.014E-04

      iter #   3 total cpu time :  1238.0 secs   av.it.:   4.9
      thresh= 1.007E-03 alpha_mix =  0.700 |ddv_scf|^2 =  1.788E-08

      iter #   4 total cpu time :  1242.2 secs   av.it.:   6.4
      thresh= 1.337E-05 alpha_mix =  0.700 |ddv_scf|^2 =  2.368E-10

     End of self-consistent calculation

     Convergence has been achieved 


     Representation #  20 mode #  20

     Self-consistent Calculation

      iter #   1 total cpu time :  1245.0 secs   av.it.:   3.3
      thresh= 1.000E-02 alpha_mix =  0.700 |ddv_scf|^2 =  2.057E-05

      iter #   2 total cpu time :  1249.0 secs   av.it.:   6.0
      thresh= 4.535E-04 alpha_mix =  0.700 |ddv_scf|^2 =  2.506E-04

      iter #   3 total cpu time :  1252.5 secs   av.it.:   4.9
      thresh= 1.583E-03 alpha_mix =  0.700 |ddv_scf|^2 =  1.045E-08

      iter #   4 total cpu time :  1257.7 secs   av.it.:   6.5
      thresh= 1.022E-05 alpha_mix =  0.700 |ddv_scf|^2 =  3.350E-10

     End of self-consistent calculation

     Convergence has been achieved 


     Representation #  21 mode #  21

     Self-consistent Calculation

      iter #   1 total cpu time :  1260.6 secs   av.it.:   3.3
      thresh= 1.000E-02 alpha_mix =  0.700 |ddv_scf|^2 =  2.404E-05

      iter #   2 total cpu time :  1264.6 secs   av.it.:   6.0
      thresh= 4.903E-04 alpha_mix =  0.700 |ddv_scf|^2 =  2.935E-04

      iter #   3 total cpu time :  1268.2 secs   av.it.:   4.9
      thresh= 1.713E-03 alpha_mix =  0.700 |ddv_scf|^2 =  1.043E-08

      iter #   4 total cpu time :  1272.4 secs   av.it.:   6.5
      thresh= 1.021E-05 alpha_mix =  0.700 |ddv_scf|^2 =  3.829E-10

     End of self-consistent calculation

     Convergence has been achieved 
 
     Number of q in the star =    2
     List of q in the star:
          1  -0.000004201  -0.000014834   0.433020710
          2   0.000004201   0.000014834  -0.433020710

     Diagonalizing the dynamical matrix

     q = (   -0.000004201  -0.000014834   0.433020710 ) 

 **************************************************************************
     freq (    1) =       5.445503 [THz] =     181.642437 [cm-1]
     freq (    2) =       7.199229 [THz] =     240.140425 [cm-1]
     freq (    3) =       7.406797 [THz] =     247.064158 [cm-1]
     freq (    4) =      16.787716 [THz] =     559.977927 [cm-1]
     freq (    5) =      19.906729 [THz] =     664.017008 [cm-1]
     freq (    6) =      22.179306 [THz] =     739.822009 [cm-1]
     freq (    7) =      22.431660 [THz] =     748.239653 [cm-1]
     freq (    8) =      22.944367 [THz] =     765.341707 [cm-1]
     freq (    9) =      27.937578 [THz] =     931.897302 [cm-1]
     freq (   10) =      28.128863 [THz] =     938.277873 [cm-1]
     freq (   11) =      29.630455 [THz] =     988.365578 [cm-1]
     freq (   12) =      32.134683 [THz] =    1071.897636 [cm-1]
     freq (   13) =      33.793416 [THz] =    1127.227023 [cm-1]
     freq (   14) =      37.237058 [THz] =    1242.094567 [cm-1]
     freq (   15) =      38.337024 [THz] =    1278.785467 [cm-1]
     freq (   16) =      40.128886 [THz] =    1338.555559 [cm-1]
     freq (   17) =      41.597507 [THz] =    1387.543491 [cm-1]
     freq (   18) =      44.326302 [THz] =    1478.566280 [cm-1]
     freq (   19) =      48.407485 [THz] =    1614.699884 [cm-1]
     freq (   20) =      55.856319 [THz] =    1863.166255 [cm-1]
     freq (   21) =      68.788303 [THz] =    2294.530807 [cm-1]
 **************************************************************************

     Mode symmetry, C_1 (1)     point group:

     freq (   1-   1) =        181.6  [cm-1]   --> A                  
     freq (   2-   2) =        240.1  [cm-1]   --> A                  
     freq (   3-   3) =        247.1  [cm-1]   --> A                  
     freq (   4-   4) =        560.0  [cm-1]   --> A                  
     freq (   5-   5) =        664.0  [cm-1]   --> A                  
     freq (   6-   6) =        739.8  [cm-1]   --> A                  
     freq (   7-   7) =        748.2  [cm-1]   --> A                  
     freq (   8-   8) =        765.3  [cm-1]   --> A                  
     freq (   9-   9) =        931.9  [cm-1]   --> A                  
     freq (  10-  10) =        938.3  [cm-1]   --> A                  
     freq (  11-  11) =        988.4  [cm-1]   --> A                  
     freq (  12-  12) =       1071.9  [cm-1]   --> A                  
     freq (  13-  13) =       1127.2  [cm-1]   --> A                  
     freq (  14-  14) =       1242.1  [cm-1]   --> A                  
     freq (  15-  15) =       1278.8  [cm-1]   --> A                  
     freq (  16-  16) =       1338.6  [cm-1]   --> A                  
     freq (  17-  17) =       1387.5  [cm-1]   --> A                  
     freq (  18-  18) =       1478.6  [cm-1]   --> A                  
     freq (  19-  19) =       1614.7  [cm-1]   --> A                  
     freq (  20-  20) =       1863.2  [cm-1]   --> A                  
     freq (  21-  21) =       2294.5  [cm-1]   --> A                  
 
     init_run     :      0.08s CPU      0.12s WALL (       4 calls)
     electrons    :     75.18s CPU     79.95s WALL (       4 calls)

     Called by init_run:
     wfcinit      :      0.00s CPU      0.02s WALL (       4 calls)
     potinit      :      0.00s CPU      0.01s WALL (       4 calls)
     hinit0       :      0.04s CPU      0.04s WALL (       4 calls)

     Called by electrons:
     c_bands      :     74.60s CPU     79.37s WALL (       4 calls)
     v_of_rho     :      0.00s CPU      0.00s WALL (       5 calls)

     Called by c_bands:
     init_us_2    :      7.26s CPU      8.22s WALL (  252928 calls)
     init_us_2:cp :      6.73s CPU      7.67s WALL (  252928 calls)
     cegterg      :     68.54s CPU     72.38s WALL (    5778 calls)

     Called by *egterg:
     cdiaghg      :     17.06s CPU     17.99s WALL (   91425 calls)
     h_psi        :    697.19s CPU    752.12s WALL ( 1668593 calls)
     g_psi        :      0.20s CPU      0.22s WALL (   87329 calls)

     Called by h_psi:
     h_psi:calbec :     34.65s CPU     37.23s WALL ( 1668593 calls)
     vloc_psi     :    642.76s CPU    693.47s WALL ( 1668593 calls)
     add_vuspsi   :      8.75s CPU      9.61s WALL ( 1668593 calls)

     General routines
     calbec       :     51.19s CPU     55.60s WALL ( 3432495 calls)
     fft          :      0.05s CPU      0.12s WALL (     949 calls)
     ffts         :      3.63s CPU      3.86s WALL (   44772 calls)
     fftw         :    830.04s CPU    900.05s WALL (20111286 calls)
     davcio       :     15.12s CPU     32.93s WALL (  891646 calls)
 
     Parallel routines
 
     PHONON       :  18m38.39s CPU  21m12.61s WALL

     INITIALIZATION: 
     phq_setup    :      0.04s CPU      0.11s WALL (       4 calls)
     phq_init     :      1.01s CPU      1.15s WALL (       4 calls)
 
     phq_init     :      1.01s CPU      1.15s WALL (       4 calls)
     init_vloc    :      0.04s CPU      0.04s WALL (       5 calls)
     init_us_1    :      0.02s CPU      0.03s WALL (       5 calls)
     init_us_2    :      7.26s CPU      8.22s WALL (  252928 calls)
 
     DYNAMICAL MATRIX:
     dynmat0      :      0.78s CPU      0.85s WALL (       4 calls)
     phqscf       :   1040.20s CPU   1183.19s WALL (       4 calls)
     dynmatrix    :      0.02s CPU      0.08s WALL (       4 calls)
 
     phqscf       :   1040.20s CPU   1183.19s WALL (       4 calls)
     solve_linter :   1034.55s CPU   1157.81s WALL (      84 calls)
     drhodv       :      5.59s CPU      6.63s WALL (      84 calls)
 
     dynmat0      :      0.78s CPU      0.85s WALL (       4 calls)
     dynmat_us    :      0.77s CPU      0.83s WALL (       4 calls)
     d2ionq       :      0.01s CPU      0.01s WALL (       4 calls)
 
     dynmat_us    :      0.77s CPU      0.83s WALL (       4 calls)
 
     phqscf       :   1040.20s CPU   1183.19s WALL (       4 calls)
     solve_linter :   1034.55s CPU   1157.81s WALL (      84 calls)
 
     solve_linter :   1034.55s CPU   1157.81s WALL (      84 calls)
     dvqpsi_us    :     35.97s CPU     38.92s WALL (   43008 calls)
     sth_kernel   :    993.73s CPU   1095.22s WALL (     310 calls)
     apply_dpot_b :     83.51s CPU     92.27s WALL (  115712 calls)
     ortho        :      4.81s CPU      5.39s WALL (  158720 calls)
     cgsolve      :    742.70s CPU    802.24s WALL (  158720 calls)
     incdrhoscf   :    139.59s CPU    153.88s WALL (  158720 calls)
     dv_of_drho   :      0.05s CPU      0.06s WALL (     310 calls)
     mix_pot      :      0.14s CPU      1.05s WALL (     310 calls)
 
     dvqpsi_us    :     35.97s CPU     38.92s WALL (   43008 calls)
     dvqpsi_us_on :      1.90s CPU      2.06s WALL (   43008 calls)
 
     cgsolve      :    742.70s CPU    802.24s WALL (  158720 calls)
     ch_psi       :    707.68s CPU    764.15s WALL ( 1571390 calls)
 
     ch_psi       :    707.68s CPU    764.15s WALL ( 1571390 calls)
     h_psi        :    697.19s CPU    752.12s WALL ( 1668593 calls)
     last         :     44.94s CPU     48.61s WALL ( 1571390 calls)
 
     h_psi        :    697.19s CPU    752.12s WALL ( 1668593 calls)
     add_vuspsi   :      8.75s CPU      9.61s WALL ( 1668593 calls)
 
     incdrhoscf   :    139.59s CPU    153.88s WALL (  158720 calls)
 
 
      General routines
     calbec       :     51.19s CPU     55.60s WALL ( 3432495 calls)
     fft          :      0.05s CPU      0.12s WALL (     949 calls)
     ffts         :      3.63s CPU      3.86s WALL (   44772 calls)
     fftw         :    830.04s CPU    900.05s WALL (20111286 calls)
     davcio       :     15.12s CPU     32.93s WALL (  891646 calls)
     write_rec    :      0.14s CPU     36.28s WALL (     394 calls)
 
 
     PHONON       :  18m38.39s CPU  21m12.62s WALL

 
   This run was terminated on:   3:13:30  31May2022            

=------------------------------------------------------------------------------=
   JOB DONE.
=------------------------------------------------------------------------------=
