
     Program PHONON v.7.0 starts on 26May2022 at 19:36: 7 

     This program is part of the open-source Quantum ESPRESSO suite
     for quantum simulation of materials; please cite
         "P. Giannozzi et al., J. Phys.:Condens. Matter 21 395502 (2009);
         "P. Giannozzi et al., J. Phys.:Condens. Matter 29 465901 (2017);
         "P. Giannozzi et al., J. Chem. Phys. 152 154105 (2020);
          URL http://www.quantum-espresso.org", 
     in publications or presentations arising from this work. More details at
     http://www.quantum-espresso.org/quote

     Parallel version (MPI), running on    24 processors

     MPI processes distributed on     1 nodes
     R & G space division:  proc/nbgrp/npool/nimage =      24
     77854 MiB available memory on the printing compute node when the environment starts
 
     Reading input from /home/mgrebenyuk/QE/Examples/LaYH20/200GPa/4x4x4/ph.in

     Reading xml data from directory:

     ./LaYH20.save/

     IMPORTANT: XC functional enforced from input :
     Exchange-correlation= PZ
                           (   1   1   0   0   0   0   0)
     Any further DFT definition will be discarded
     Please, verify this is what you really want

 
     Parallelization info
     --------------------
     sticks:   dense  smooth     PW     G-vecs:    dense   smooth      PW
     Min          72      72     22                 1504     1504     260
     Max          73      73     23                 1506     1506     263
     Sum        1729    1729    543                36119    36119    6279
 
     Using Slab Decomposition
 
     Reading collected, re-writing distributed wavefunctions


     Dynamical matrices for ( 4, 4, 4)  uniform grid of q-points
     With a half shift
     (  10 q-points):
       N         xq(1)         xq(2)         xq(3) 
       1   0.000000000   0.000000000   0.132838276
       2  -0.426499607  -0.246239663   0.221397127
       3   0.852999215   0.492479326  -0.044279425
       4   0.426499607   0.246239663   0.044279425
       5  -0.426499607   0.246239663   0.309955978
       6   0.852999215   0.984958652   0.044279425
       7   0.426499607   0.738718989   0.132838276
       8   0.852999215  -0.492479326  -0.221397127
       9   0.000000000   0.000000000   0.398514829
      10   1.279498822   0.738718989   0.132838276
     Because shifted q grid is used, q2r will not work !

     Saving dvscf to file. Distribute only q points, not irreducible represetations.

     Calculation of q =    0.0000000   0.0000000   0.1328383

     Subspace diagonalization in iterative solution of the eigenvalue problem:
     a serial algorithm will be used

     [opt_tetra]  Optimized tetrahedron method is used.
 
     Parallelization info
     --------------------
     sticks:   dense  smooth     PW     G-vecs:    dense   smooth      PW
     Min          72      72     22                 1504     1504     261
     Max          73      73     23                 1506     1506     263
     Sum        1729    1729    543                36119    36119    6291
 
     Using Slab Decomposition
 

     Title: 
     Electron-phonon coefficients for LaYH20                                    


     bravais-lattice index     =            5
     lattice parameter (alat)  =      11.0055  a.u.
     unit-cell volume          =     373.2416 (a.u.)^3
     number of atoms/cell      =           22
     number of atomic types    =            3
     number of electrons       =        34.00
     number of Kohn-Sham states=           21
     kinetic-energy cutoff     =      80.0000  Ry
     charge density cutoff     =     320.0000  Ry
     Exchange-correlation= PZ
                           (   1   1   0   0   0   0   0)

     celldm(1)=  11.005504  celldm(2)=   0.000000  celldm(3)=   0.000000
     celldm(4)=   0.828204  celldm(5)=   0.000000  celldm(6)=   0.000000

     crystal axes: (cart. coord. in units of alat)
               a(1) = (   0.293084  -0.169212   0.940994 )  
               a(2) = (   0.000000   0.338424   0.940994 )  
               a(3) = (  -0.293084  -0.169212   0.940994 )  

     reciprocal axes: (cart. coord. in units 2 pi/alat)
               b(1) = (  1.705998 -0.984959  0.354235 )  
               b(2) = (  0.000000  1.969917  0.354235 )  
               b(3) = ( -1.705998 -0.984959  0.354235 )  


     PseudoPot. # 1 for La read from file:
     ./La.UPF
     MD5 check sum: 8e5991bce12d7f16f732aa20d6589152
     Pseudo is Norm-conserving, Zval = 11.0
     Generated in analytical, separable form
     Using radial grid of 1253 points,  7 beta functions with: 
                l(1) =   0
                l(2) =   0
                l(3) =   1
                l(4) =   1
                l(5) =   1
                l(6) =   2
                l(7) =   3

     PseudoPot. # 2 for H  read from file:
     ./H.UPF
     MD5 check sum: df8e43189db5a2d7f03d0dd74d71ce72
     Pseudo is Norm-conserving, Zval =  1.0
     Generated in analytical, separable form
     Using radial grid of  929 points,  0 beta functions with: 

     PseudoPot. # 3 for Y  read from file:
     ./Y.UPF
     MD5 check sum: 28b92b02874aa0fef5f1b1d2b706803c
     Pseudo is Norm-conserving, Zval =  3.0
     Generated in analytical, separable form
     Using radial grid of 1223 points,  7 beta functions with: 
                l(1) =   0
                l(2) =   0
                l(3) =   0
                l(4) =   1
                l(5) =   1
                l(6) =   2
                l(7) =   2

     atomic species   valence    mass     pseudopotential
        La            11.00   138.90547     La( 1.00)
        H              1.00     1.00794     H ( 1.00)
        Y              3.00    88.90585     Y ( 1.00)

     12 Sym. Ops., with inversion, found



   Cartesian axes

     site n.     atom                  positions (alat units)
         1           La  tau(   1) = (   0.0000000  -0.0000000   1.4114908  )
         2           Y   tau(   2) = (   0.0000000   0.0000000   0.0000000  )
         3           H   tau(   3) = (  -0.1428933   0.0824995   2.1618675  )
         4           H   tau(   4) = (   0.0000000  -0.1649990   2.1618675  )
         5           H   tau(   5) = (   0.1428933   0.0824995   2.1618675  )
         6           H   tau(   6) = (  -0.1428933  -0.0824995   0.6611140  )
         7           H   tau(   7) = (   0.0000000   0.1649990   0.6611140  )
         8           H   tau(   8) = (   0.1428933  -0.0824995   0.6611140  )
         9           H   tau(   9) = (   0.1519727  -0.0877415   1.7196220  )
        10           H   tau(  10) = (   0.0000000   0.1754830   1.7196220  )
        11           H   tau(  11) = (  -0.1519727  -0.0877415   1.7196220  )
        12           H   tau(  12) = (   0.1519727   0.0877415   1.1033595  )
        13           H   tau(  13) = (   0.0000000  -0.1754830   1.1033595  )
        14           H   tau(  14) = (  -0.1519727   0.0877415   1.1033595  )
        15           H   tau(  15) = (   0.0000000  -0.0000000   2.2800590  )
        16           H   tau(  16) = (   0.0000000  -0.0000000   0.5429225  )
        17           H   tau(  17) = (   0.0000000  -0.0000000   1.9452070  )
        18           H   tau(  18) = (   0.0000000  -0.0000000   0.8777746  )
        19           H   tau(  19) = (   0.0000000  -0.0000000   2.4758411  )
        20           H   tau(  20) = (   0.0000000  -0.0000000   0.3471405  )
        21           H   tau(  21) = (   0.0000000  -0.0000000   1.0612419  )
        22           H   tau(  22) = (   0.0000000  -0.0000000   1.7617396  )

     number of k points=   728 (tetrahedron method)

     Number of k-points >= 100: set verbosity='high' to print them.

     Dense  grid:    36119 G-vectors     FFT dimensions: (  64,  64,  64)

     Estimated max dynamical RAM per process >      10.17 MB

     Estimated total dynamical RAM >     244.19 MB

     The potential is recalculated from file :
     ./_ph0/LaYH20.q_1/LaYH20.save/charge-density

     Starting wfcs are   20 atomic +    1 random wfcs

     Band Structure Calculation
     Davidson diagonalization with overlap
     c_bands:  1 eigenvalues not converged
     c_bands:  1 eigenvalues not converged
     c_bands:  1 eigenvalues not converged
     c_bands:  1 eigenvalues not converged
     c_bands:  1 eigenvalues not converged
     c_bands:  1 eigenvalues not converged
     c_bands:  1 eigenvalues not converged
     c_bands:  1 eigenvalues not converged
     c_bands:  1 eigenvalues not converged

     ethr =  2.94E-11,  avg # of iterations = 50.2

     total cpu time spent up to now is      170.6 secs

     End of band structure calculation

     Number of k-points >= 100: set verbosity='high' to print the bands.

     the Fermi energy is    17.1925 ev

     Writing config to output data dir ./_ph0/LaYH20.q_1/LaYH20.save/
 
     [dfpt_tetra]  Dos(E_F)[/Ry] :   0.2115930E+02

     Electron-phonon coefficients for LaYH20                                    

     bravais-lattice index     =            5
     lattice parameter (alat)  =      11.0055  a.u.
     unit-cell volume          =     373.2416 (a.u.)^3
     number of atoms/cell      =           22
     number of atomic types    =            3
     kinetic-energy cut-off    =      80.0000  Ry
     charge density cut-off    =     320.0000  Ry
     convergence threshold     =      1.0E-08
     beta                      =       0.7000
     number of iterations used =            4
     Exchange-correlation= PZ
                           (   1   1   0   0   0   0   0)


     celldm(1)=   11.00550  celldm(2)=    0.00000  celldm(3)=    0.00000
     celldm(4)=    0.82820  celldm(5)=    0.00000  celldm(6)=    0.00000

     crystal axes: (cart. coord. in units of alat)
               a(1) = (  0.2931 -0.1692  0.9410 )  
               a(2) = (  0.0000  0.3384  0.9410 )  
               a(3) = ( -0.2931 -0.1692  0.9410 )  

     reciprocal axes: (cart. coord. in units 2 pi/alat)
               b(1) = (  1.7060 -0.9850  0.3542 )  
               b(2) = (  0.0000  1.9699  0.3542 )  
               b(3) = ( -1.7060 -0.9850  0.3542 )  


     Atoms inside the unit cell: 

     Cartesian axes

     site n.  atom      mass           positions (alat units)
        1     La 138.9055   tau(    1) = (    0.00000   -0.00000    1.41149  )
        2     Y   88.9059   tau(    2) = (    0.00000    0.00000    0.00000  )
        3     H    1.0079   tau(    3) = (   -0.14289    0.08250    2.16187  )
        4     H    1.0079   tau(    4) = (    0.00000   -0.16500    2.16187  )
        5     H    1.0079   tau(    5) = (    0.14289    0.08250    2.16187  )
        6     H    1.0079   tau(    6) = (   -0.14289   -0.08250    0.66111  )
        7     H    1.0079   tau(    7) = (    0.00000    0.16500    0.66111  )
        8     H    1.0079   tau(    8) = (    0.14289   -0.08250    0.66111  )
        9     H    1.0079   tau(    9) = (    0.15197   -0.08774    1.71962  )
       10     H    1.0079   tau(   10) = (    0.00000    0.17548    1.71962  )
       11     H    1.0079   tau(   11) = (   -0.15197   -0.08774    1.71962  )
       12     H    1.0079   tau(   12) = (    0.15197    0.08774    1.10336  )
       13     H    1.0079   tau(   13) = (    0.00000   -0.17548    1.10336  )
       14     H    1.0079   tau(   14) = (   -0.15197    0.08774    1.10336  )
       15     H    1.0079   tau(   15) = (    0.00000   -0.00000    2.28006  )
       16     H    1.0079   tau(   16) = (    0.00000   -0.00000    0.54292  )
       17     H    1.0079   tau(   17) = (    0.00000   -0.00000    1.94521  )
       18     H    1.0079   tau(   18) = (    0.00000   -0.00000    0.87777  )
       19     H    1.0079   tau(   19) = (    0.00000   -0.00000    2.47584  )
       20     H    1.0079   tau(   20) = (    0.00000   -0.00000    0.34714  )
       21     H    1.0079   tau(   21) = (    0.00000   -0.00000    1.06124  )
       22     H    1.0079   tau(   22) = (    0.00000   -0.00000    1.76174  )

     Computing dynamical matrix for 
                    q = (   0.0000000   0.0000000   0.1328383 )
 
      6 Sym.Ops. (no q -> -q+G )


     G cutoff =  981.7709  (   1506 G-vectors)     FFT grid: ( 64, 64, 64)
     number of k points=   728

     PseudoPot. # 1 for La read from file:
     ./La.UPF
     MD5 check sum: 8e5991bce12d7f16f732aa20d6589152
     Pseudo is Norm-conserving, Zval = 11.0
     Generated in analytical, separable form
     Using radial grid of 1253 points,  7 beta functions with: 
                l(1) =   0
                l(2) =   0
                l(3) =   1
                l(4) =   1
                l(5) =   1
                l(6) =   2
                l(7) =   3

     PseudoPot. # 2 for H  read from file:
     ./H.UPF
     MD5 check sum: df8e43189db5a2d7f03d0dd74d71ce72
     Pseudo is Norm-conserving, Zval =  1.0
     Generated in analytical, separable form
     Using radial grid of  929 points,  0 beta functions with: 

     PseudoPot. # 3 for Y  read from file:
     ./Y.UPF
     MD5 check sum: 28b92b02874aa0fef5f1b1d2b706803c
     Pseudo is Norm-conserving, Zval =  3.0
     Generated in analytical, separable form
     Using radial grid of 1223 points,  7 beta functions with: 
                l(1) =   0
                l(2) =   0
                l(3) =   0
                l(4) =   1
                l(5) =   1
                l(6) =   2
                l(7) =   2

     Mode symmetry, C_3v (3m)   point group:


     Atomic displacements:
     There are   44 irreducible representations

     Representation     1      1 modes -  To be done

     Representation     2      1 modes -  To be done

     Representation     3      1 modes -  To be done

     Representation     4      1 modes -  To be done

     Representation     5      1 modes -  To be done

     Representation     6      1 modes -  To be done

     Representation     7      1 modes -  To be done

     Representation     8      1 modes -  To be done

     Representation     9      1 modes -  To be done

     Representation    10      1 modes -  To be done

     Representation    11      1 modes -  To be done

     Representation    12      1 modes -  To be done

     Representation    13      1 modes -  To be done

     Representation    14      1 modes -  To be done

     Representation    15      1 modes -  To be done

     Representation    16      1 modes -  To be done

     Representation    17      1 modes -  To be done

     Representation    18      1 modes -  To be done

     Representation    19      1 modes -  To be done

     Representation    20      1 modes -  To be done

     Representation    21      1 modes -  To be done

     Representation    22      1 modes -  To be done

     Representation    23      2 modes -  To be done

     Representation    24      2 modes -  To be done

     Representation    25      2 modes -  To be done

     Representation    26      2 modes -  To be done

     Representation    27      2 modes -  To be done

     Representation    28      2 modes -  To be done

     Representation    29      2 modes -  To be done

     Representation    30      2 modes -  To be done

     Representation    31      2 modes -  To be done

     Representation    32      2 modes -  To be done

     Representation    33      2 modes -  To be done

     Representation    34      2 modes -  To be done

     Representation    35      2 modes -  To be done

     Representation    36      2 modes -  To be done

     Representation    37      2 modes -  To be done

     Representation    38      2 modes -  To be done

     Representation    39      2 modes -  To be done

     Representation    40      2 modes -  To be done

     Representation    41      2 modes -  To be done

     Representation    42      2 modes -  To be done

     Representation    43      2 modes -  To be done

     Representation    44      2 modes -  To be done



     Alpha used in Ewald sum =   2.8000
     PHONON       :   2m49.97s CPU   3m 9.53s WALL



     Representation #   1 mode #   1

     Self-consistent Calculation

      iter #   1 total cpu time :   205.4 secs   av.it.:   5.0
      thresh= 1.000E-02 alpha_mix =  0.700 |ddv_scf|^2 =  5.541E-03

      iter #   2 total cpu time :   242.5 secs   av.it.:  11.6
      thresh= 7.444E-03 alpha_mix =  0.700 |ddv_scf|^2 =  1.697E+02

      iter #   3 total cpu time :   272.6 secs   av.it.:  11.2
      thresh= 1.000E-02 alpha_mix =  0.700 |ddv_scf|^2 =  5.204E-02

      iter #   4 total cpu time :   293.3 secs   av.it.:   6.8
      thresh= 1.000E-02 alpha_mix =  0.700 |ddv_scf|^2 =  1.105E-05

      iter #   5 total cpu time :   347.1 secs   av.it.:  13.1
      thresh= 3.325E-04 alpha_mix =  0.700 |ddv_scf|^2 =  3.343E-04

      iter #   6 total cpu time :   364.4 secs   av.it.:   5.5
      thresh= 1.828E-03 alpha_mix =  0.700 |ddv_scf|^2 =  3.611E-03

      iter #   7 total cpu time :   385.4 secs   av.it.:   7.3
      thresh= 6.009E-03 alpha_mix =  0.700 |ddv_scf|^2 =  2.735E-06

      iter #   8 total cpu time :   414.7 secs   av.it.:  11.1
      thresh= 1.654E-04 alpha_mix =  0.700 |ddv_scf|^2 =  4.700E-07

      iter #   9 total cpu time :   445.4 secs   av.it.:  11.7
      thresh= 6.856E-05 alpha_mix =  0.700 |ddv_scf|^2 =  9.570E-06

      iter #  10 total cpu time :   464.2 secs   av.it.:   3.7
      thresh= 3.093E-04 alpha_mix =  0.700 |ddv_scf|^2 =  4.939E-09

     End of self-consistent calculation

     Convergence has been achieved 


     Representation #   2 mode #   2

     Self-consistent Calculation

      iter #   1 total cpu time :   481.3 secs   av.it.:   5.3
      thresh= 1.000E-02 alpha_mix =  0.700 |ddv_scf|^2 =  1.216E-02

      iter #   2 total cpu time :   515.0 secs   av.it.:  11.8
      thresh= 1.000E-02 alpha_mix =  0.700 |ddv_scf|^2 =  3.724E+02

      iter #   3 total cpu time :   546.5 secs   av.it.:  11.8
      thresh= 1.000E-02 alpha_mix =  0.700 |ddv_scf|^2 =  1.144E-01

      iter #   4 total cpu time :   569.2 secs   av.it.:   7.4
      thresh= 1.000E-02 alpha_mix =  0.700 |ddv_scf|^2 =  2.917E-05

      iter #   5 total cpu time :   604.3 secs   av.it.:  12.9
      thresh= 5.401E-04 alpha_mix =  0.700 |ddv_scf|^2 =  2.901E-05

      iter #   6 total cpu time :   644.1 secs   av.it.:  11.6
      thresh= 5.386E-04 alpha_mix =  0.700 |ddv_scf|^2 =  3.380E-03

      iter #   7 total cpu time :   657.0 secs   av.it.:   3.3
      thresh= 5.814E-03 alpha_mix =  0.700 |ddv_scf|^2 =  4.066E-06

      iter #   8 total cpu time :   700.3 secs   av.it.:  11.3
      thresh= 2.016E-04 alpha_mix =  0.700 |ddv_scf|^2 =  1.262E-06

      iter #   9 total cpu time :   732.3 secs   av.it.:  11.4
      thresh= 1.123E-04 alpha_mix =  0.700 |ddv_scf|^2 =  2.747E-06

      iter #  10 total cpu time :   761.6 secs   av.it.:   5.6
      thresh= 1.657E-04 alpha_mix =  0.700 |ddv_scf|^2 =  3.626E-09

     End of self-consistent calculation

     Convergence has been achieved 


     Representation #   3 mode #   3

     Self-consistent Calculation

      iter #   1 total cpu time :   786.4 secs   av.it.:   5.3
      thresh= 1.000E-02 alpha_mix =  0.700 |ddv_scf|^2 =  3.741E-02

      iter #   2 total cpu time :   829.8 secs   av.it.:  12.7
      thresh= 1.000E-02 alpha_mix =  0.700 |ddv_scf|^2 =  1.146E+03

      iter #   3 total cpu time :   863.0 secs   av.it.:  12.8
      thresh= 1.000E-02 alpha_mix =  0.700 |ddv_scf|^2 =  3.503E-01

      iter #   4 total cpu time :   887.2 secs   av.it.:   8.3
      thresh= 1.000E-02 alpha_mix =  0.700 |ddv_scf|^2 =  5.473E-05

      iter #   5 total cpu time :   932.8 secs   av.it.:  13.3
      thresh= 7.398E-04 alpha_mix =  0.700 |ddv_scf|^2 =  2.590E-03

      iter #   6 total cpu time :   966.5 secs   av.it.:   5.3
      thresh= 5.090E-03 alpha_mix =  0.700 |ddv_scf|^2 =  2.079E-02

      iter #   7 total cpu time :   994.2 secs   av.it.:   8.0
      thresh= 1.000E-02 alpha_mix =  0.700 |ddv_scf|^2 =  6.155E-06

      iter #   8 total cpu time :  1028.2 secs   av.it.:  12.1
      thresh= 2.481E-04 alpha_mix =  0.700 |ddv_scf|^2 =  4.211E-06

      iter #   9 total cpu time :  1059.1 secs   av.it.:  11.4
      thresh= 2.052E-04 alpha_mix =  0.700 |ddv_scf|^2 =  1.514E-05

      iter #  10 total cpu time :  1079.2 secs   av.it.:   5.8
      thresh= 3.891E-04 alpha_mix =  0.700 |ddv_scf|^2 =  2.444E-08

      iter #  11 total cpu time :  1108.6 secs   av.it.:  10.8
      thresh= 1.563E-05 alpha_mix =  0.700 |ddv_scf|^2 =  1.434E-08

      iter #  12 total cpu time :  1136.1 secs   av.it.:   9.8
      thresh= 1.197E-05 alpha_mix =  0.700 |ddv_scf|^2 =  1.729E-10

     End of self-consistent calculation

     Convergence has been achieved 


     Representation #   4 mode #   4

     Self-consistent Calculation

      iter #   1 total cpu time :  1154.5 secs   av.it.:   5.3
      thresh= 1.000E-02 alpha_mix =  0.700 |ddv_scf|^2 =  3.716E-02

      iter #   2 total cpu time :  1191.0 secs   av.it.:  12.7
      thresh= 1.000E-02 alpha_mix =  0.700 |ddv_scf|^2 =  1.138E+03

      iter #   3 total cpu time :  1231.7 secs   av.it.:  12.8
      thresh= 1.000E-02 alpha_mix =  0.700 |ddv_scf|^2 =  3.497E-01

      iter #   4 total cpu time :  1266.8 secs   av.it.:   8.4
      thresh= 1.000E-02 alpha_mix =  0.700 |ddv_scf|^2 =  9.307E-05

      iter #   5 total cpu time :  1306.5 secs   av.it.:  12.8
      thresh= 9.647E-04 alpha_mix =  0.700 |ddv_scf|^2 =  2.199E-03

      iter #   6 total cpu time :  1329.1 secs   av.it.:   5.7
      thresh= 4.690E-03 alpha_mix =  0.700 |ddv_scf|^2 =  2.408E-02

      iter #   7 total cpu time :  1352.4 secs   av.it.:   8.0
      thresh= 1.000E-02 alpha_mix =  0.700 |ddv_scf|^2 =  7.431E-06

      iter #   8 total cpu time :  1388.4 secs   av.it.:  12.1
      thresh= 2.726E-04 alpha_mix =  0.700 |ddv_scf|^2 =  3.745E-06

      iter #   9 total cpu time :  1431.4 secs   av.it.:  11.6
      thresh= 1.935E-04 alpha_mix =  0.700 |ddv_scf|^2 =  1.201E-05

      iter #  10 total cpu time :  1449.3 secs   av.it.:   5.8
      thresh= 3.466E-04 alpha_mix =  0.700 |ddv_scf|^2 =  9.789E-09

     End of self-consistent calculation

     Convergence has been achieved 


     Representation #   5 mode #   5

     Self-consistent Calculation

      iter #   1 total cpu time :  1469.8 secs   av.it.:   6.4
      thresh= 1.000E-02 alpha_mix =  0.700 |ddv_scf|^2 =  1.119E-01

      iter #   2 total cpu time :  1509.0 secs   av.it.:  13.7
      thresh= 1.000E-02 alpha_mix =  0.700 |ddv_scf|^2 =  3.429E+03

      iter #   3 total cpu time :  1557.0 secs   av.it.:  13.7
      thresh= 1.000E-02 alpha_mix =  0.700 |ddv_scf|^2 =  1.050E+00

      iter #   4 total cpu time :  1594.4 secs   av.it.:   9.2
      thresh= 1.000E-02 alpha_mix =  0.700 |ddv_scf|^2 =  1.962E-04

      iter #   5 total cpu time :  1630.8 secs   av.it.:  13.1
      thresh= 1.401E-03 alpha_mix =  0.700 |ddv_scf|^2 =  3.127E-04

      iter #   6 total cpu time :  1669.9 secs   av.it.:  11.5
      thresh= 1.768E-03 alpha_mix =  0.700 |ddv_scf|^2 =  1.445E-01

      iter #   7 total cpu time :  1690.6 secs   av.it.:   5.9
      thresh= 1.000E-02 alpha_mix =  0.700 |ddv_scf|^2 =  3.130E-05

      iter #   8 total cpu time :  1721.8 secs   av.it.:  11.9
      thresh= 5.595E-04 alpha_mix =  0.700 |ddv_scf|^2 =  1.192E-05

      iter #   9 total cpu time :  1763.3 secs   av.it.:  11.6
      thresh= 3.452E-04 alpha_mix =  0.700 |ddv_scf|^2 =  1.122E-04

      iter #  10 total cpu time :  1777.8 secs   av.it.:   4.1
      thresh= 1.059E-03 alpha_mix =  0.700 |ddv_scf|^2 =  6.944E-08

      iter #  11 total cpu time :  1807.8 secs   av.it.:  11.3
      thresh= 2.635E-05 alpha_mix =  0.700 |ddv_scf|^2 =  1.054E-08

      iter #  12 total cpu time :  1839.1 secs   av.it.:  11.8
      thresh= 1.027E-05 alpha_mix =  0.700 |ddv_scf|^2 =  6.649E-10

     End of self-consistent calculation

     Convergence has been achieved 


     Representation #   6 mode #   6

     Self-consistent Calculation

      iter #   1 total cpu time :  1856.6 secs   av.it.:   5.3
      thresh= 1.000E-02 alpha_mix =  0.700 |ddv_scf|^2 =  3.716E-02

      iter #   2 total cpu time :  1894.3 secs   av.it.:  12.7
      thresh= 1.000E-02 alpha_mix =  0.700 |ddv_scf|^2 =  1.138E+03

      iter #   3 total cpu time :  1927.5 secs   av.it.:  12.8
      thresh= 1.000E-02 alpha_mix =  0.700 |ddv_scf|^2 =  3.497E-01

      iter #   4 total cpu time :  1952.8 secs   av.it.:   8.4
      thresh= 1.000E-02 alpha_mix =  0.700 |ddv_scf|^2 =  9.306E-05

      iter #   5 total cpu time :  2001.3 secs   av.it.:  12.8
      thresh= 9.647E-04 alpha_mix =  0.700 |ddv_scf|^2 =  2.079E-03

      iter #   6 total cpu time :  2019.8 secs   av.it.:   5.8
      thresh= 4.560E-03 alpha_mix =  0.700 |ddv_scf|^2 =  2.537E-02

      iter #   7 total cpu time :  2043.3 secs   av.it.:   8.0
      thresh= 1.000E-02 alpha_mix =  0.700 |ddv_scf|^2 =  7.739E-06

      iter #   8 total cpu time :  2084.9 secs   av.it.:  12.0
      thresh= 2.782E-04 alpha_mix =  0.700 |ddv_scf|^2 =  3.763E-06

      iter #   9 total cpu time :  2121.5 secs   av.it.:  11.6
      thresh= 1.940E-04 alpha_mix =  0.700 |ddv_scf|^2 =  1.239E-05

      iter #  10 total cpu time :  2139.3 secs   av.it.:   5.8
      thresh= 3.520E-04 alpha_mix =  0.700 |ddv_scf|^2 =  1.016E-08

      iter #  11 total cpu time :  2179.7 secs   av.it.:  11.4
      thresh= 1.008E-05 alpha_mix =  0.700 |ddv_scf|^2 =  1.372E-08

      iter #  12 total cpu time :  2206.3 secs   av.it.:   9.8
      thresh= 1.171E-05 alpha_mix =  0.700 |ddv_scf|^2 =  6.363E-11

     End of self-consistent calculation

     Convergence has been achieved 


     Representation #   7 mode #   7

     Self-consistent Calculation

      iter #   1 total cpu time :  2226.9 secs   av.it.:   6.3
      thresh= 1.000E-02 alpha_mix =  0.700 |ddv_scf|^2 =  1.095E-01

      iter #   2 total cpu time :  2262.5 secs   av.it.:  13.6
      thresh= 1.000E-02 alpha_mix =  0.700 |ddv_scf|^2 =  3.354E+03

      iter #   3 total cpu time :  2316.5 secs   av.it.:  13.7
      thresh= 1.000E-02 alpha_mix =  0.700 |ddv_scf|^2 =  1.029E+00

      iter #   4 total cpu time :  2341.7 secs   av.it.:   9.2
      thresh= 1.000E-02 alpha_mix =  0.700 |ddv_scf|^2 =  2.504E-04

      iter #   5 total cpu time :  2375.9 secs   av.it.:  12.8
      thresh= 1.583E-03 alpha_mix =  0.700 |ddv_scf|^2 =  2.868E-04

      iter #   6 total cpu time :  2429.8 secs   av.it.:  11.6
      thresh= 1.694E-03 alpha_mix =  0.700 |ddv_scf|^2 =  1.387E-01

      iter #   7 total cpu time :  2448.0 secs   av.it.:   5.9
      thresh= 1.000E-02 alpha_mix =  0.700 |ddv_scf|^2 =  3.125E-05

      iter #   8 total cpu time :  2479.2 secs   av.it.:  11.8
      thresh= 5.590E-04 alpha_mix =  0.700 |ddv_scf|^2 =  1.046E-05

      iter #   9 total cpu time :  2513.6 secs   av.it.:  11.8
      thresh= 3.234E-04 alpha_mix =  0.700 |ddv_scf|^2 =  4.782E-05

      iter #  10 total cpu time :  2529.9 secs   av.it.:   4.9
      thresh= 6.915E-04 alpha_mix =  0.700 |ddv_scf|^2 =  4.722E-08

      iter #  11 total cpu time :  2563.9 secs   av.it.:  11.5
      thresh= 2.173E-05 alpha_mix =  0.700 |ddv_scf|^2 =  1.060E-08

      iter #  12 total cpu time :  2612.6 secs   av.it.:  11.6
      thresh= 1.030E-05 alpha_mix =  0.700 |ddv_scf|^2 =  1.179E-10

     End of self-consistent calculation

     Convergence has been achieved 


     Representation #   8 mode #   8

     Self-consistent Calculation

      iter #   1 total cpu time :  2629.4 secs   av.it.:   5.2
      thresh= 1.000E-02 alpha_mix =  0.700 |ddv_scf|^2 =  3.720E-02

      iter #   2 total cpu time :  2662.7 secs   av.it.:  12.7
      thresh= 1.000E-02 alpha_mix =  0.700 |ddv_scf|^2 =  1.139E+03

      iter #   3 total cpu time :  2705.4 secs   av.it.:  12.8
      thresh= 1.000E-02 alpha_mix =  0.700 |ddv_scf|^2 =  3.501E-01

      iter #   4 total cpu time :  2729.0 secs   av.it.:   8.4
      thresh= 1.000E-02 alpha_mix =  0.700 |ddv_scf|^2 =  1.024E-04

      iter #   5 total cpu time :  2784.7 secs   av.it.:  12.7
      thresh= 1.012E-03 alpha_mix =  0.700 |ddv_scf|^2 =  3.644E-04

      iter #   6 total cpu time :  2811.9 secs   av.it.:   9.3
      thresh= 1.909E-03 alpha_mix =  0.700 |ddv_scf|^2 =  1.074E-01

      iter #   7 total cpu time :  2835.9 secs   av.it.:   7.7
      thresh= 1.000E-02 alpha_mix =  0.700 |ddv_scf|^2 =  3.219E-05

      iter #   8 total cpu time :  2880.5 secs   av.it.:  10.9
      thresh= 5.674E-04 alpha_mix =  0.700 |ddv_scf|^2 =  3.810E-06

      iter #   9 total cpu time :  2912.0 secs   av.it.:  11.9
      thresh= 1.952E-04 alpha_mix =  0.700 |ddv_scf|^2 =  9.978E-06

      iter #  10 total cpu time :  2931.0 secs   av.it.:   6.3
      thresh= 3.159E-04 alpha_mix =  0.700 |ddv_scf|^2 =  5.529E-08

      iter #  11 total cpu time :  2961.5 secs   av.it.:  11.3
      thresh= 2.351E-05 alpha_mix =  0.700 |ddv_scf|^2 =  2.412E-08

      iter #  12 total cpu time :  3001.5 secs   av.it.:  10.8
      thresh= 1.553E-05 alpha_mix =  0.700 |ddv_scf|^2 =  2.366E-11

     End of self-consistent calculation

     Convergence has been achieved 


     Representation #   9 mode #   9

     Self-consistent Calculation

      iter #   1 total cpu time :  3028.0 secs   av.it.:   9.4
      thresh= 1.000E-02 alpha_mix =  0.700 |ddv_scf|^2 =  4.520E+00

      iter #   2 total cpu time :  3085.7 secs   av.it.:  17.0
      thresh= 1.000E-02 alpha_mix =  0.700 |ddv_scf|^2 =  1.385E+05

      iter #   3 total cpu time :  3129.5 secs   av.it.:  17.0
      thresh= 1.000E-02 alpha_mix =  0.700 |ddv_scf|^2 =  4.225E+01

      iter #   4 total cpu time :  3163.6 secs   av.it.:  11.9
      thresh= 1.000E-02 alpha_mix =  0.700 |ddv_scf|^2 =  5.366E-03

      iter #   5 total cpu time :  3202.3 secs   av.it.:  13.0
      thresh= 7.326E-03 alpha_mix =  0.700 |ddv_scf|^2 =  1.327E-02

      iter #   6 total cpu time :  3234.3 secs   av.it.:  11.7
      thresh= 1.000E-02 alpha_mix =  0.700 |ddv_scf|^2 =  2.092E-01

      iter #   7 total cpu time :  3269.0 secs   av.it.:   5.6
      thresh= 1.000E-02 alpha_mix =  0.700 |ddv_scf|^2 =  4.522E-04

      iter #   8 total cpu time :  3302.8 secs   av.it.:  11.6
      thresh= 2.126E-03 alpha_mix =  0.700 |ddv_scf|^2 =  7.975E-05

      iter #   9 total cpu time :  3333.6 secs   av.it.:  11.4
      thresh= 8.930E-04 alpha_mix =  0.700 |ddv_scf|^2 =  5.562E-06

      iter #  10 total cpu time :  3363.5 secs   av.it.:   7.9
      thresh= 2.358E-04 alpha_mix =  0.700 |ddv_scf|^2 =  2.963E-06

      iter #  11 total cpu time :  3385.7 secs   av.it.:   7.4
      thresh= 1.721E-04 alpha_mix =  0.700 |ddv_scf|^2 =  2.541E-09

     End of self-consistent calculation

     Convergence has been achieved 


     Representation #  10 mode #  10

     Self-consistent Calculation

      iter #   1 total cpu time :  3406.1 secs   av.it.:   6.4
      thresh= 1.000E-02 alpha_mix =  0.700 |ddv_scf|^2 =  1.065E-01

      iter #   2 total cpu time :  3451.1 secs   av.it.:  13.6
      thresh= 1.000E-02 alpha_mix =  0.700 |ddv_scf|^2 =  3.263E+03

      iter #   3 total cpu time :  3487.2 secs   av.it.:  13.6
      thresh= 1.000E-02 alpha_mix =  0.700 |ddv_scf|^2 =  9.989E-01

      iter #   4 total cpu time :  3513.0 secs   av.it.:   9.2
      thresh= 1.000E-02 alpha_mix =  0.700 |ddv_scf|^2 =  1.854E-04

      iter #   5 total cpu time :  3548.9 secs   av.it.:  13.1
      thresh= 1.362E-03 alpha_mix =  0.700 |ddv_scf|^2 =  2.784E-04

      iter #   6 total cpu time :  3579.4 secs   av.it.:  11.6
      thresh= 1.668E-03 alpha_mix =  0.700 |ddv_scf|^2 =  6.554E-02

      iter #   7 total cpu time :  3601.8 secs   av.it.:   4.8
      thresh= 1.000E-02 alpha_mix =  0.700 |ddv_scf|^2 =  1.407E-05

      iter #   8 total cpu time :  3636.2 secs   av.it.:  12.4
      thresh= 3.751E-04 alpha_mix =  0.700 |ddv_scf|^2 =  8.445E-06

      iter #   9 total cpu time :  3669.0 secs   av.it.:  11.6
      thresh= 2.906E-04 alpha_mix =  0.700 |ddv_scf|^2 =  3.430E-05

      iter #  10 total cpu time :  3689.5 secs   av.it.:   4.2
      thresh= 5.856E-04 alpha_mix =  0.700 |ddv_scf|^2 =  3.576E-08

      iter #  11 total cpu time :  3719.1 secs   av.it.:  10.7
      thresh= 1.891E-05 alpha_mix =  0.700 |ddv_scf|^2 =  2.304E-09

     End of self-consistent calculation

     Convergence has been achieved 


     Representation #  11 mode #  11

     Self-consistent Calculation

      iter #   1 total cpu time :  3736.9 secs   av.it.:   5.2
      thresh= 1.000E-02 alpha_mix =  0.700 |ddv_scf|^2 =  3.757E-02

      iter #   2 total cpu time :  3770.3 secs   av.it.:  12.7
      thresh= 1.000E-02 alpha_mix =  0.700 |ddv_scf|^2 =  1.151E+03

      iter #   3 total cpu time :  3804.9 secs   av.it.:  12.8
      thresh= 1.000E-02 alpha_mix =  0.700 |ddv_scf|^2 =  3.512E-01

      iter #   4 total cpu time :  3828.2 secs   av.it.:   8.3
      thresh= 1.000E-02 alpha_mix =  0.700 |ddv_scf|^2 =  5.308E-05

      iter #   5 total cpu time :  3865.4 secs   av.it.:  13.3
      thresh= 7.286E-04 alpha_mix =  0.700 |ddv_scf|^2 =  1.142E-03

      iter #   6 total cpu time :  3886.5 secs   av.it.:   7.0
      thresh= 3.379E-03 alpha_mix =  0.700 |ddv_scf|^2 =  4.566E-02

      iter #   7 total cpu time :  3909.9 secs   av.it.:   8.0
      thresh= 1.000E-02 alpha_mix =  0.700 |ddv_scf|^2 =  1.474E-05

      iter #   8 total cpu time :  3950.7 secs   av.it.:  11.5
      thresh= 3.840E-04 alpha_mix =  0.700 |ddv_scf|^2 =  4.618E-06

      iter #   9 total cpu time :  3981.0 secs   av.it.:  11.5
      thresh= 2.149E-04 alpha_mix =  0.700 |ddv_scf|^2 =  1.375E-05

      iter #  10 total cpu time :  4019.6 secs   av.it.:   6.4
      thresh= 3.708E-04 alpha_mix =  0.700 |ddv_scf|^2 =  3.901E-08

      iter #  11 total cpu time :  4048.5 secs   av.it.:  11.0
      thresh= 1.975E-05 alpha_mix =  0.700 |ddv_scf|^2 =  2.081E-08

      iter #  12 total cpu time :  4085.8 secs   av.it.:  10.3
      thresh= 1.443E-05 alpha_mix =  0.700 |ddv_scf|^2 =  1.945E-10

     End of self-consistent calculation

     Convergence has been achieved 


     Representation #  12 mode #  12

     Self-consistent Calculation

      iter #   1 total cpu time :  4105.8 secs   av.it.:   6.2
      thresh= 1.000E-02 alpha_mix =  0.700 |ddv_scf|^2 =  9.990E-02

      iter #   2 total cpu time :  4141.6 secs   av.it.:  13.6
      thresh= 1.000E-02 alpha_mix =  0.700 |ddv_scf|^2 =  3.060E+03

      iter #   3 total cpu time :  4176.4 secs   av.it.:  13.6
      thresh= 1.000E-02 alpha_mix =  0.700 |ddv_scf|^2 =  9.392E-01

      iter #   4 total cpu time :  4204.2 secs   av.it.:   9.1
      thresh= 1.000E-02 alpha_mix =  0.700 |ddv_scf|^2 =  2.286E-04

      iter #   5 total cpu time :  4237.9 secs   av.it.:  12.8
      thresh= 1.512E-03 alpha_mix =  0.700 |ddv_scf|^2 =  2.628E-04

      iter #   6 total cpu time :  4268.9 secs   av.it.:  11.6
      thresh= 1.621E-03 alpha_mix =  0.700 |ddv_scf|^2 =  1.336E-01

      iter #   7 total cpu time :  4287.4 secs   av.it.:   5.9
      thresh= 1.000E-02 alpha_mix =  0.700 |ddv_scf|^2 =  3.032E-05

      iter #   8 total cpu time :  4323.8 secs   av.it.:  11.7
      thresh= 5.506E-04 alpha_mix =  0.700 |ddv_scf|^2 =  9.523E-06

      iter #   9 total cpu time :  4354.8 secs   av.it.:  11.8
      thresh= 3.086E-04 alpha_mix =  0.700 |ddv_scf|^2 =  3.590E-05

      iter #  10 total cpu time :  4375.6 secs   av.it.:   4.8
      thresh= 5.992E-04 alpha_mix =  0.700 |ddv_scf|^2 =  4.927E-08

      iter #  11 total cpu time :  4408.2 secs   av.it.:  11.4
      thresh= 2.220E-05 alpha_mix =  0.700 |ddv_scf|^2 =  1.008E-08

      iter #  12 total cpu time :  4438.9 secs   av.it.:  11.6
      thresh= 1.004E-05 alpha_mix =  0.700 |ddv_scf|^2 =  1.223E-10

     End of self-consistent calculation

     Convergence has been achieved 


     Representation #  13 mode #  13

     Self-consistent Calculation

      iter #   1 total cpu time :  4455.8 secs   av.it.:   5.2
      thresh= 1.000E-02 alpha_mix =  0.700 |ddv_scf|^2 =  3.757E-02

      iter #   2 total cpu time :  4488.8 secs   av.it.:  12.7
      thresh= 1.000E-02 alpha_mix =  0.700 |ddv_scf|^2 =  1.151E+03

      iter #   3 total cpu time :  4533.0 secs   av.it.:  12.8
      thresh= 1.000E-02 alpha_mix =  0.700 |ddv_scf|^2 =  3.512E-01

      iter #   4 total cpu time :  4570.2 secs   av.it.:   8.3
      thresh= 1.000E-02 alpha_mix =  0.700 |ddv_scf|^2 =  5.309E-05

      iter #   5 total cpu time :  4606.6 secs   av.it.:  13.3
      thresh= 7.286E-04 alpha_mix =  0.700 |ddv_scf|^2 =  1.095E-03

      iter #   6 total cpu time :  4627.9 secs   av.it.:   7.1
      thresh= 3.309E-03 alpha_mix =  0.700 |ddv_scf|^2 =  4.740E-02

      iter #   7 total cpu time :  4654.8 secs   av.it.:   8.0
      thresh= 1.000E-02 alpha_mix =  0.700 |ddv_scf|^2 =  1.523E-05

      iter #   8 total cpu time :  4686.4 secs   av.it.:  11.5
      thresh= 3.902E-04 alpha_mix =  0.700 |ddv_scf|^2 =  4.631E-06

      iter #   9 total cpu time :  4717.4 secs   av.it.:  11.5
      thresh= 2.152E-04 alpha_mix =  0.700 |ddv_scf|^2 =  1.442E-05

      iter #  10 total cpu time :  4737.6 secs   av.it.:   6.4
      thresh= 3.798E-04 alpha_mix =  0.700 |ddv_scf|^2 =  3.946E-08

      iter #  11 total cpu time :  4785.9 secs   av.it.:  11.0
      thresh= 1.986E-05 alpha_mix =  0.700 |ddv_scf|^2 =  2.134E-08

      iter #  12 total cpu time :  4813.4 secs   av.it.:  10.3
      thresh= 1.461E-05 alpha_mix =  0.700 |ddv_scf|^2 =  1.992E-10

     End of self-consistent calculation

     Convergence has been achieved 


     Representation #  14 mode #  14

     Self-consistent Calculation

      iter #   1 total cpu time :  4834.9 secs   av.it.:   6.6
      thresh= 1.000E-02 alpha_mix =  0.700 |ddv_scf|^2 =  3.316E-01

      iter #   2 total cpu time :  4875.0 secs   av.it.:  14.6
      thresh= 1.000E-02 alpha_mix =  0.700 |ddv_scf|^2 =  1.016E+04

      iter #   3 total cpu time :  4920.6 secs   av.it.:  14.6
      thresh= 1.000E-02 alpha_mix =  0.700 |ddv_scf|^2 =  3.119E+00

      iter #   4 total cpu time :  4947.5 secs   av.it.:   9.8
      thresh= 1.000E-02 alpha_mix =  0.700 |ddv_scf|^2 =  6.946E-04

      iter #   5 total cpu time :  4985.9 secs   av.it.:  12.5
      thresh= 2.635E-03 alpha_mix =  0.700 |ddv_scf|^2 =  7.877E-04

      iter #   6 total cpu time :  5021.4 secs   av.it.:  11.7
      thresh= 2.807E-03 alpha_mix =  0.700 |ddv_scf|^2 =  1.549E-02

      iter #   7 total cpu time :  5034.9 secs   av.it.:   3.4
      thresh= 1.000E-02 alpha_mix =  0.700 |ddv_scf|^2 =  2.189E-05

      iter #   8 total cpu time :  5070.9 secs   av.it.:  11.9
      thresh= 4.678E-04 alpha_mix =  0.700 |ddv_scf|^2 =  4.721E-06

      iter #   9 total cpu time :  5117.8 secs   av.it.:  11.6
      thresh= 2.173E-04 alpha_mix =  0.700 |ddv_scf|^2 =  3.683E-07

      iter #  10 total cpu time :  5143.8 secs   av.it.:   7.6
      thresh= 6.069E-05 alpha_mix =  0.700 |ddv_scf|^2 =  1.360E-07

      iter #  11 total cpu time :  5167.4 secs   av.it.:   6.9
      thresh= 3.688E-05 alpha_mix =  0.700 |ddv_scf|^2 =  3.477E-10

     End of self-consistent calculation

     Convergence has been achieved 


     Representation #  15 mode #  15

     Self-consistent Calculation

      iter #   1 total cpu time :  5185.1 secs   av.it.:   5.2
      thresh= 1.000E-02 alpha_mix =  0.700 |ddv_scf|^2 =  3.720E-02

      iter #   2 total cpu time :  5222.6 secs   av.it.:  12.7
      thresh= 1.000E-02 alpha_mix =  0.700 |ddv_scf|^2 =  1.139E+03

      iter #   3 total cpu time :  5256.8 secs   av.it.:  12.8
      thresh= 1.000E-02 alpha_mix =  0.700 |ddv_scf|^2 =  3.501E-01

      iter #   4 total cpu time :  5280.7 secs   av.it.:   8.4
      thresh= 1.000E-02 alpha_mix =  0.700 |ddv_scf|^2 =  1.024E-04

      iter #   5 total cpu time :  5314.9 secs   av.it.:  12.7
      thresh= 1.012E-03 alpha_mix =  0.700 |ddv_scf|^2 =  3.912E-04

      iter #   6 total cpu time :  5344.6 secs   av.it.:   9.2
      thresh= 1.978E-03 alpha_mix =  0.700 |ddv_scf|^2 =  1.029E-01

      iter #   7 total cpu time :  5370.6 secs   av.it.:   7.8
      thresh= 1.000E-02 alpha_mix =  0.700 |ddv_scf|^2 =  3.090E-05

      iter #   8 total cpu time :  5424.0 secs   av.it.:  10.9
      thresh= 5.559E-04 alpha_mix =  0.700 |ddv_scf|^2 =  3.808E-06

      iter #   9 total cpu time :  5454.6 secs   av.it.:  11.9
      thresh= 1.951E-04 alpha_mix =  0.700 |ddv_scf|^2 =  9.961E-06

      iter #  10 total cpu time :  5483.3 secs   av.it.:   6.3
      thresh= 3.156E-04 alpha_mix =  0.700 |ddv_scf|^2 =  5.239E-08

      iter #  11 total cpu time :  5513.4 secs   av.it.:  11.3
      thresh= 2.289E-05 alpha_mix =  0.700 |ddv_scf|^2 =  2.419E-08

      iter #  12 total cpu time :  5555.1 secs   av.it.:  10.7
      thresh= 1.555E-05 alpha_mix =  0.700 |ddv_scf|^2 =  2.437E-11

     End of self-consistent calculation

     Convergence has been achieved 


     Representation #  16 mode #  16

     Self-consistent Calculation

      iter #   1 total cpu time :  5572.4 secs   av.it.:   5.3
      thresh= 1.000E-02 alpha_mix =  0.700 |ddv_scf|^2 =  3.741E-02

      iter #   2 total cpu time :  5618.3 secs   av.it.:  12.7
      thresh= 1.000E-02 alpha_mix =  0.700 |ddv_scf|^2 =  1.146E+03

      iter #   3 total cpu time :  5650.8 secs   av.it.:  12.8
      thresh= 1.000E-02 alpha_mix =  0.700 |ddv_scf|^2 =  3.503E-01

      iter #   4 total cpu time :  5675.0 secs   av.it.:   8.3
      thresh= 1.000E-02 alpha_mix =  0.700 |ddv_scf|^2 =  5.478E-05

      iter #   5 total cpu time :  5716.1 secs   av.it.:  13.3
      thresh= 7.402E-04 alpha_mix =  0.700 |ddv_scf|^2 =  2.790E-03

      iter #   6 total cpu time :  5733.1 secs   av.it.:   5.2
      thresh= 5.282E-03 alpha_mix =  0.700 |ddv_scf|^2 =  1.938E-02

      iter #   7 total cpu time :  5758.1 secs   av.it.:   8.0
      thresh= 1.000E-02 alpha_mix =  0.700 |ddv_scf|^2 =  5.825E-06

      iter #   8 total cpu time :  5790.2 secs   av.it.:  12.2
      thresh= 2.414E-04 alpha_mix =  0.700 |ddv_scf|^2 =  4.184E-06

      iter #   9 total cpu time :  5826.9 secs   av.it.:  11.4
      thresh= 2.046E-04 alpha_mix =  0.700 |ddv_scf|^2 =  1.473E-05

      iter #  10 total cpu time :  5846.3 secs   av.it.:   5.8
      thresh= 3.838E-04 alpha_mix =  0.700 |ddv_scf|^2 =  2.394E-08

      iter #  11 total cpu time :  5878.4 secs   av.it.:  10.7
      thresh= 1.547E-05 alpha_mix =  0.700 |ddv_scf|^2 =  1.379E-08

      iter #  12 total cpu time :  5913.2 secs   av.it.:   9.7
      thresh= 1.174E-05 alpha_mix =  0.700 |ddv_scf|^2 =  1.693E-10

     End of self-consistent calculation

     Convergence has been achieved 


     Representation #  17 mode #  17

     Self-consistent Calculation

      iter #   1 total cpu time :  5943.6 secs   av.it.:   4.9
      thresh= 1.000E-02 alpha_mix =  0.700 |ddv_scf|^2 =  2.552E-03

      iter #   2 total cpu time :  5974.2 secs   av.it.:  11.6
      thresh= 5.052E-03 alpha_mix =  0.700 |ddv_scf|^2 =  7.818E+01

      iter #   3 total cpu time :  6002.8 secs   av.it.:  10.6
      thresh= 1.000E-02 alpha_mix =  0.700 |ddv_scf|^2 =  2.407E-02

      iter #   4 total cpu time :  6025.0 secs   av.it.:   6.3
      thresh= 1.000E-02 alpha_mix =  0.700 |ddv_scf|^2 =  7.328E-06

      iter #   5 total cpu time :  6071.7 secs   av.it.:  12.9
      thresh= 2.707E-04 alpha_mix =  0.700 |ddv_scf|^2 =  1.031E-03

      iter #   6 total cpu time :  6090.0 secs   av.it.:   3.6
      thresh= 3.211E-03 alpha_mix =  0.700 |ddv_scf|^2 =  2.891E-04

      iter #   7 total cpu time :  6114.9 secs   av.it.:   8.6
      thresh= 1.700E-03 alpha_mix =  0.700 |ddv_scf|^2 =  5.779E-07

      iter #   8 total cpu time :  6156.8 secs   av.it.:  11.8
      thresh= 7.602E-05 alpha_mix =  0.700 |ddv_scf|^2 =  1.142E-07

      iter #   9 total cpu time :  6188.3 secs   av.it.:  12.1
      thresh= 3.380E-05 alpha_mix =  0.700 |ddv_scf|^2 =  1.630E-06

      iter #  10 total cpu time :  6206.3 secs   av.it.:   5.5
      thresh= 1.277E-04 alpha_mix =  0.700 |ddv_scf|^2 =  1.876E-09

     End of self-consistent calculation

     Convergence has been achieved 


     Representation #  18 mode #  18

     Self-consistent Calculation

      iter #   1 total cpu time :  6223.1 secs   av.it.:   4.5
      thresh= 1.000E-02 alpha_mix =  0.700 |ddv_scf|^2 =  1.270E-04

      iter #   2 total cpu time :  6262.3 secs   av.it.:  11.8
      thresh= 1.127E-03 alpha_mix =  0.700 |ddv_scf|^2 =  3.890E+00

      iter #   3 total cpu time :  6286.6 secs   av.it.:   8.0
      thresh= 1.000E-02 alpha_mix =  0.700 |ddv_scf|^2 =  1.176E-03

      iter #   4 total cpu time :  6310.0 secs   av.it.:   6.3
      thresh= 3.429E-03 alpha_mix =  0.700 |ddv_scf|^2 =  1.281E-07

      iter #   5 total cpu time :  6357.9 secs   av.it.:  13.7
      thresh= 3.579E-05 alpha_mix =  0.700 |ddv_scf|^2 =  3.056E-05

      iter #   6 total cpu time :  6372.0 secs   av.it.:   3.8
      thresh= 5.528E-04 alpha_mix =  0.700 |ddv_scf|^2 =  2.060E-05

      iter #   7 total cpu time :  6408.5 secs   av.it.:   8.5
      thresh= 4.539E-04 alpha_mix =  0.700 |ddv_scf|^2 =  6.453E-08

      iter #   8 total cpu time :  6443.3 secs   av.it.:  11.2
      thresh= 2.540E-05 alpha_mix =  0.700 |ddv_scf|^2 =  7.686E-09

     End of self-consistent calculation

     Convergence has been achieved 


     Representation #  19 mode #  19

     Self-consistent Calculation

      iter #   1 total cpu time :  6459.5 secs   av.it.:   3.8
      thresh= 1.000E-02 alpha_mix =  0.700 |ddv_scf|^2 =  8.084E-10

     End of self-consistent calculation

     Convergence has been achieved 


     Representation #  20 mode #  20

     Self-consistent Calculation

      iter #   1 total cpu time :  6508.6 secs   av.it.:   3.6
      thresh= 1.000E-02 alpha_mix =  0.700 |ddv_scf|^2 =  7.286E-10

     End of self-consistent calculation

     Convergence has been achieved 


     Representation #  21 mode #  21

     Self-consistent Calculation

      iter #   1 total cpu time :  6523.0 secs   av.it.:   3.8
      thresh= 1.000E-02 alpha_mix =  0.700 |ddv_scf|^2 =  8.084E-10

     End of self-consistent calculation

     Convergence has been achieved 


     Representation #  22 mode #  22

     Self-consistent Calculation

      iter #   1 total cpu time :  6541.5 secs   av.it.:   3.6
      thresh= 1.000E-02 alpha_mix =  0.700 |ddv_scf|^2 =  7.286E-10

     End of self-consistent calculation

     Convergence has been achieved 


     Representation #  23 modes #  23  24

     Self-consistent Calculation

      iter #   1 total cpu time :  6590.1 secs   av.it.:   4.1
      thresh= 1.000E-02 alpha_mix =  0.700 |ddv_scf|^2 =  3.457E-09

     End of self-consistent calculation

     Convergence has been achieved 


     Representation #  24 modes #  25  26

     Self-consistent Calculation

      iter #   1 total cpu time :  6622.8 secs   av.it.:   4.2
      thresh= 1.000E-02 alpha_mix =  0.700 |ddv_scf|^2 =  3.879E-09

     End of self-consistent calculation

     Convergence has been achieved 


     Representation #  25 modes #  27  28

     Self-consistent Calculation

      iter #   1 total cpu time :  6658.2 secs   av.it.:   4.1
      thresh= 1.000E-02 alpha_mix =  0.700 |ddv_scf|^2 =  1.699E-09

     End of self-consistent calculation

     Convergence has been achieved 


     Representation #  26 modes #  29  30

     Self-consistent Calculation

      iter #   1 total cpu time :  6722.5 secs   av.it.:   4.3
      thresh= 1.000E-02 alpha_mix =  0.700 |ddv_scf|^2 =  4.262E-09

     End of self-consistent calculation

     Convergence has been achieved 


     Representation #  27 modes #  31  32

     Self-consistent Calculation

      iter #   1 total cpu time :  6774.5 secs   av.it.:   4.5
      thresh= 1.000E-02 alpha_mix =  0.700 |ddv_scf|^2 =  5.178E-09

     End of self-consistent calculation

     Convergence has been achieved 


     Representation #  28 modes #  33  34

     Self-consistent Calculation

      iter #   1 total cpu time :  6820.6 secs   av.it.:   4.1
      thresh= 1.000E-02 alpha_mix =  0.700 |ddv_scf|^2 =  1.648E-09

     End of self-consistent calculation

     Convergence has been achieved 


     Representation #  29 modes #  35  36

     Self-consistent Calculation

      iter #   1 total cpu time :  6860.4 secs   av.it.:   4.4
      thresh= 1.000E-02 alpha_mix =  0.700 |ddv_scf|^2 =  4.613E-09

     End of self-consistent calculation

     Convergence has been achieved 


     Representation #  30 modes #  37  38

     Self-consistent Calculation

      iter #   1 total cpu time :  6897.4 secs   av.it.:   4.0
      thresh= 1.000E-02 alpha_mix =  0.700 |ddv_scf|^2 =  3.503E-09

     End of self-consistent calculation

     Convergence has been achieved 


     Representation #  31 modes #  39  40

     Self-consistent Calculation

      iter #   1 total cpu time :  6954.6 secs   av.it.:   4.3
      thresh= 1.000E-02 alpha_mix =  0.700 |ddv_scf|^2 =  4.262E-09

     End of self-consistent calculation

     Convergence has been achieved 


     Representation #  32 modes #  41  42

     Self-consistent Calculation

      iter #   1 total cpu time :  7015.5 secs   av.it.:   4.6
      thresh= 1.000E-02 alpha_mix =  0.700 |ddv_scf|^2 =  2.592E-09

     End of self-consistent calculation

     Convergence has been achieved 


     Representation #  33 modes #  43  44

     Self-consistent Calculation

      iter #   1 total cpu time :  7070.3 secs   av.it.:   4.1
      thresh= 1.000E-02 alpha_mix =  0.700 |ddv_scf|^2 =  1.687E-09

     End of self-consistent calculation

     Convergence has been achieved 


     Representation #  34 modes #  45  46

     Self-consistent Calculation

      iter #   1 total cpu time :  7105.9 secs   av.it.:   4.0
      thresh= 1.000E-02 alpha_mix =  0.700 |ddv_scf|^2 =  3.503E-09

     End of self-consistent calculation

     Convergence has been achieved 


     Representation #  35 modes #  47  48

     Self-consistent Calculation

      iter #   1 total cpu time :  7137.3 secs   av.it.:   4.1
      thresh= 1.000E-02 alpha_mix =  0.700 |ddv_scf|^2 =  1.869E-09

     End of self-consistent calculation

     Convergence has been achieved 


     Representation #  36 modes #  49  50

     Self-consistent Calculation

      iter #   1 total cpu time :  7186.9 secs   av.it.:   4.1
      thresh= 1.000E-02 alpha_mix =  0.700 |ddv_scf|^2 =  3.457E-09

     End of self-consistent calculation

     Convergence has been achieved 


     Representation #  37 modes #  51  52

     Self-consistent Calculation

      iter #   1 total cpu time :  7219.1 secs   av.it.:   4.1
      thresh= 1.000E-02 alpha_mix =  0.700 |ddv_scf|^2 =  1.822E-09

     End of self-consistent calculation

     Convergence has been achieved 


     Representation #  38 modes #  53  54

     Self-consistent Calculation

      iter #   1 total cpu time :  7267.2 secs   av.it.:   4.1
      thresh= 1.000E-02 alpha_mix =  0.700 |ddv_scf|^2 =  1.825E-09

     End of self-consistent calculation

     Convergence has been achieved 


     Representation #  39 modes #  55  56

     Self-consistent Calculation

      iter #   1 total cpu time :  7310.5 secs   av.it.:   4.2
      thresh= 1.000E-02 alpha_mix =  0.700 |ddv_scf|^2 =  4.008E-09

     End of self-consistent calculation

     Convergence has been achieved 


     Representation #  40 modes #  57  58

     Self-consistent Calculation

      iter #   1 total cpu time :  7366.8 secs   av.it.:   7.7
      thresh= 1.000E-02 alpha_mix =  0.700 |ddv_scf|^2 =  1.649E-07

      iter #   2 total cpu time :  7454.6 secs   av.it.:  16.0
      thresh= 4.061E-05 alpha_mix =  0.700 |ddv_scf|^2 =  3.387E-08

      iter #   3 total cpu time :  7536.9 secs   av.it.:  15.7
      thresh= 1.840E-05 alpha_mix =  0.700 |ddv_scf|^2 =  2.315E-11

     End of self-consistent calculation

     Convergence has been achieved 


     Representation #  41 modes #  59  60

     Self-consistent Calculation

      iter #   1 total cpu time :  7574.4 secs   av.it.:   4.2
      thresh= 1.000E-02 alpha_mix =  0.700 |ddv_scf|^2 =  3.879E-09

     End of self-consistent calculation

     Convergence has been achieved 


     Representation #  42 modes #  61  62

     Self-consistent Calculation

      iter #   1 total cpu time :  7608.6 secs   av.it.:   4.2
      thresh= 1.000E-02 alpha_mix =  0.700 |ddv_scf|^2 =  3.925E-09

     End of self-consistent calculation

     Convergence has been achieved 


     Representation #  43 modes #  63  64

     Self-consistent Calculation

      iter #   1 total cpu time :  7643.9 secs   av.it.:   4.2
      thresh= 1.000E-02 alpha_mix =  0.700 |ddv_scf|^2 =  2.139E-09

     End of self-consistent calculation

     Convergence has been achieved 


     Representation #  44 modes #  65  66

     Self-consistent Calculation

      iter #   1 total cpu time :  7684.0 secs   av.it.:   4.0
      thresh= 1.000E-02 alpha_mix =  0.700 |ddv_scf|^2 =  1.537E-09

     End of self-consistent calculation

     Convergence has been achieved 
 
     Number of q in the star =    2
     List of q in the star:
          1   0.000000000   0.000000000   0.132838276
          2   0.000000000   0.000000000  -0.132838276

     Diagonalizing the dynamical matrix

     q = (    0.000000000   0.000000000   0.132838276 ) 

 **************************************************************************
     freq (    1) =    -109.647514 [THz] =   -3657.447373 [cm-1]
     freq (    2) =    -109.647514 [THz] =   -3657.447373 [cm-1]
     freq (    3) =     -96.471740 [THz] =   -3217.950858 [cm-1]
     freq (    4) =     -96.471740 [THz] =   -3217.950858 [cm-1]
     freq (    5) =     -89.026607 [THz] =   -2969.607952 [cm-1]
     freq (    6) =     -89.026607 [THz] =   -2969.607952 [cm-1]
     freq (    7) =     -85.697279 [THz] =   -2858.553546 [cm-1]
     freq (    8) =     -85.697279 [THz] =   -2858.553546 [cm-1]
     freq (    9) =     -81.416390 [THz] =   -2715.758442 [cm-1]
     freq (   10) =     -81.416390 [THz] =   -2715.758442 [cm-1]
     freq (   11) =     -61.016194 [THz] =   -2035.281152 [cm-1]
     freq (   12) =     -61.016194 [THz] =   -2035.281152 [cm-1]
     freq (   13) =     -52.086686 [THz] =   -1737.424830 [cm-1]
     freq (   14) =     -52.086686 [THz] =   -1737.424830 [cm-1]
     freq (   15) =     -49.298956 [THz] =   -1644.436159 [cm-1]
     freq (   16) =     -49.298956 [THz] =   -1644.436159 [cm-1]
     freq (   17) =     -40.715187 [THz] =   -1358.112449 [cm-1]
     freq (   18) =     -40.472585 [THz] =   -1350.020108 [cm-1]
     freq (   19) =     -40.472585 [THz] =   -1350.020108 [cm-1]
     freq (   20) =     -39.737356 [THz] =   -1325.495533 [cm-1]
     freq (   21) =     -39.737356 [THz] =   -1325.495533 [cm-1]
     freq (   22) =     -38.965570 [THz] =   -1299.751508 [cm-1]
     freq (   23) =     -25.940685 [THz] =    -865.288122 [cm-1]
     freq (   24) =     -25.940685 [THz] =    -865.288122 [cm-1]
     freq (   25) =     -19.870172 [THz] =    -662.797604 [cm-1]
     freq (   26) =     -19.870172 [THz] =    -662.797604 [cm-1]
     freq (   27) =      -5.536507 [THz] =    -184.677993 [cm-1]
     freq (   28) =       2.838941 [THz] =      94.696882 [cm-1]
     freq (   29) =       2.838941 [THz] =      94.696882 [cm-1]
     freq (   30) =       4.942666 [THz] =     164.869590 [cm-1]
     freq (   31) =      13.453962 [THz] =     448.775871 [cm-1]
     freq (   32) =      13.453962 [THz] =     448.775871 [cm-1]
     freq (   33) =      17.429246 [THz] =     581.377078 [cm-1]
     freq (   34) =      17.429246 [THz] =     581.377078 [cm-1]
     freq (   35) =      20.708677 [THz] =     690.767115 [cm-1]
     freq (   36) =      21.682425 [THz] =     723.247855 [cm-1]
     freq (   37) =      21.682425 [THz] =     723.247855 [cm-1]
     freq (   38) =      22.261888 [THz] =     742.576645 [cm-1]
     freq (   39) =      25.467112 [THz] =     849.491430 [cm-1]
     freq (   40) =      25.944037 [THz] =     865.399924 [cm-1]
     freq (   41) =      25.944037 [THz] =     865.399924 [cm-1]
     freq (   42) =      27.628782 [THz] =     921.596978 [cm-1]
     freq (   43) =      28.598986 [THz] =     953.959498 [cm-1]
     freq (   44) =      28.922537 [THz] =     964.751987 [cm-1]
     freq (   45) =      31.083324 [THz] =    1036.828096 [cm-1]
     freq (   46) =      31.083324 [THz] =    1036.828096 [cm-1]
     freq (   47) =      32.012711 [THz] =    1067.829108 [cm-1]
     freq (   48) =      32.012711 [THz] =    1067.829108 [cm-1]
     freq (   49) =      32.496940 [THz] =    1083.981223 [cm-1]
     freq (   50) =      32.496940 [THz] =    1083.981223 [cm-1]
     freq (   51) =      33.421590 [THz] =    1114.824256 [cm-1]
     freq (   52) =      33.968454 [THz] =    1133.065669 [cm-1]
     freq (   53) =      35.959805 [THz] =    1199.489996 [cm-1]
     freq (   54) =      36.688995 [THz] =    1223.813140 [cm-1]
     freq (   55) =      36.688995 [THz] =    1223.813140 [cm-1]
     freq (   56) =      37.905481 [THz] =    1264.390762 [cm-1]
     freq (   57) =      37.905481 [THz] =    1264.390762 [cm-1]
     freq (   58) =      41.813817 [THz] =    1394.758810 [cm-1]
     freq (   59) =      44.266410 [THz] =    1476.568499 [cm-1]
     freq (   60) =      47.123170 [THz] =    1571.859748 [cm-1]
     freq (   61) =      53.753468 [THz] =    1793.022677 [cm-1]
     freq (   62) =      56.198487 [THz] =    1874.579736 [cm-1]
     freq (   63) =      58.327545 [THz] =    1945.597468 [cm-1]
     freq (   64) =      59.401794 [THz] =    1981.430569 [cm-1]
     freq (   65) =      62.722278 [THz] =    2092.189983 [cm-1]
     freq (   66) =      71.261639 [THz] =    2377.032423 [cm-1]
 **************************************************************************

     Mode symmetry, C_3v (3m)   point group:

     freq (   1-   2) =      -3657.4  [cm-1]   --> E    L_3           
     freq (   3-   4) =      -3218.0  [cm-1]   --> E    L_3           
     freq (   5-   6) =      -2969.6  [cm-1]   --> E    L_3           
     freq (   7-   8) =      -2858.6  [cm-1]   --> E    L_3           
     freq (   9-  10) =      -2715.8  [cm-1]   --> E    L_3           
     freq (  11-  12) =      -2035.3  [cm-1]   --> E    L_3           
     freq (  13-  14) =      -1737.4  [cm-1]   --> E    L_3           
     freq (  15-  16) =      -1644.4  [cm-1]   --> E    L_3           
     freq (  17-  17) =      -1358.1  [cm-1]   --> A_2  L_2           
     freq (  18-  19) =      -1350.0  [cm-1]   --> E    L_3           
     freq (  20-  21) =      -1325.5  [cm-1]   --> E    L_3           
     freq (  22-  22) =      -1299.8  [cm-1]   --> A_2  L_2           
     freq (  23-  24) =       -865.3  [cm-1]   --> E    L_3           
     freq (  25-  26) =       -662.8  [cm-1]   --> E    L_3           
     freq (  27-  27) =       -184.7  [cm-1]   --> A_1  L_1           
     freq (  28-  29) =         94.7  [cm-1]   --> E    L_3           
     freq (  30-  30) =        164.9  [cm-1]   --> A_1  L_1           
     freq (  31-  32) =        448.8  [cm-1]   --> E    L_3           
     freq (  33-  34) =        581.4  [cm-1]   --> E    L_3           
     freq (  35-  35) =        690.8  [cm-1]   --> A_1  L_1           
     freq (  36-  37) =        723.2  [cm-1]   --> E    L_3           
     freq (  38-  38) =        742.6  [cm-1]   --> A_1  L_1           
     freq (  39-  39) =        849.5  [cm-1]   --> A_1  L_1           
     freq (  40-  41) =        865.4  [cm-1]   --> E    L_3           
     freq (  42-  42) =        921.6  [cm-1]   --> A_1  L_1           
     freq (  43-  43) =        954.0  [cm-1]   --> A_1  L_1           
     freq (  44-  44) =        964.8  [cm-1]   --> A_2  L_2           
     freq (  45-  46) =       1036.8  [cm-1]   --> E    L_3           
     freq (  47-  48) =       1067.8  [cm-1]   --> E    L_3           
     freq (  49-  50) =       1084.0  [cm-1]   --> E    L_3           
     freq (  51-  51) =       1114.8  [cm-1]   --> A_2  L_2           
     freq (  52-  52) =       1133.1  [cm-1]   --> A_1  L_1           
     freq (  53-  53) =       1199.5  [cm-1]   --> A_1  L_1           
     freq (  54-  55) =       1223.8  [cm-1]   --> E    L_3           
     freq (  56-  57) =       1264.4  [cm-1]   --> E    L_3           
     freq (  58-  58) =       1394.8  [cm-1]   --> A_1  L_1           
     freq (  59-  59) =       1476.6  [cm-1]   --> A_1  L_1           
     freq (  60-  60) =       1571.9  [cm-1]   --> A_1  L_1           
     freq (  61-  61) =       1793.0  [cm-1]   --> A_1  L_1           
     freq (  62-  62) =       1874.6  [cm-1]   --> A_1  L_1           
     freq (  63-  63) =       1945.6  [cm-1]   --> A_1  L_1           
     freq (  64-  64) =       1981.4  [cm-1]   --> A_1  L_1           
     freq (  65-  65) =       2092.2  [cm-1]   --> A_1  L_1           
     freq (  66-  66) =       2377.0  [cm-1]   --> A_1  L_1           

     Calculation of q =   -0.4264996  -0.2462397   0.2213971
     [opt_tetra]  Optimized tetrahedron method is used.
 
     Parallelization info
     --------------------
     sticks:   dense  smooth     PW     G-vecs:    dense   smooth      PW
     Min          72      72     23                 1504     1504     284
     Max          73      73     24                 1506     1506     285
     Sum        1729    1729    569                36119    36119    6831
 
     Using Slab Decomposition
 

     Title: 
     Electron-phonon coefficients for LaYH20                                    


     bravais-lattice index     =            5
     lattice parameter (alat)  =      11.0055  a.u.
     unit-cell volume          =     373.2416 (a.u.)^3
     number of atoms/cell      =           22
     number of atomic types    =            3
     number of electrons       =        34.00
     number of Kohn-Sham states=           21
     kinetic-energy cutoff     =      80.0000  Ry
     charge density cutoff     =     320.0000  Ry
     Exchange-correlation= PZ
                           (   1   1   0   0   0   0   0)

     celldm(1)=  11.005504  celldm(2)=   0.000000  celldm(3)=   0.000000
     celldm(4)=   0.828204  celldm(5)=   0.000000  celldm(6)=   0.000000

     crystal axes: (cart. coord. in units of alat)
               a(1) = (   0.293084  -0.169212   0.940994 )  
               a(2) = (   0.000000   0.338424   0.940994 )  
               a(3) = (  -0.293084  -0.169212   0.940994 )  

     reciprocal axes: (cart. coord. in units 2 pi/alat)
               b(1) = (  1.705998 -0.984959  0.354235 )  
               b(2) = (  0.000000  1.969917  0.354235 )  
               b(3) = ( -1.705998 -0.984959  0.354235 )  


     PseudoPot. # 1 for La read from file:
     ./La.UPF
     MD5 check sum: 8e5991bce12d7f16f732aa20d6589152
     Pseudo is Norm-conserving, Zval = 11.0
     Generated in analytical, separable form
     Using radial grid of 1253 points,  7 beta functions with: 
                l(1) =   0
                l(2) =   0
                l(3) =   1
                l(4) =   1
                l(5) =   1
                l(6) =   2
                l(7) =   3

     PseudoPot. # 2 for H  read from file:
     ./H.UPF
     MD5 check sum: df8e43189db5a2d7f03d0dd74d71ce72
     Pseudo is Norm-conserving, Zval =  1.0
     Generated in analytical, separable form
     Using radial grid of  929 points,  0 beta functions with: 

     PseudoPot. # 3 for Y  read from file:
     ./Y.UPF
     MD5 check sum: 28b92b02874aa0fef5f1b1d2b706803c
     Pseudo is Norm-conserving, Zval =  3.0
     Generated in analytical, separable form
     Using radial grid of 1223 points,  7 beta functions with: 
                l(1) =   0
                l(2) =   0
                l(3) =   0
                l(4) =   1
                l(5) =   1
                l(6) =   2
                l(7) =   2

     atomic species   valence    mass     pseudopotential
        La            11.00   138.90547     La( 1.00)
        H              1.00     1.00794     H ( 1.00)
        Y              3.00    88.90585     Y ( 1.00)

     12 Sym. Ops., with inversion, found



   Cartesian axes

     site n.     atom                  positions (alat units)
         1           La  tau(   1) = (   0.0000000  -0.0000000   1.4114908  )
         2           Y   tau(   2) = (   0.0000000   0.0000000   0.0000000  )
         3           H   tau(   3) = (  -0.1428933   0.0824995   2.1618675  )
         4           H   tau(   4) = (   0.0000000  -0.1649990   2.1618675  )
         5           H   tau(   5) = (   0.1428933   0.0824995   2.1618675  )
         6           H   tau(   6) = (  -0.1428933  -0.0824995   0.6611140  )
         7           H   tau(   7) = (   0.0000000   0.1649990   0.6611140  )
         8           H   tau(   8) = (   0.1428933  -0.0824995   0.6611140  )
         9           H   tau(   9) = (   0.1519727  -0.0877415   1.7196220  )
        10           H   tau(  10) = (   0.0000000   0.1754830   1.7196220  )
        11           H   tau(  11) = (  -0.1519727  -0.0877415   1.7196220  )
        12           H   tau(  12) = (   0.1519727   0.0877415   1.1033595  )
        13           H   tau(  13) = (   0.0000000  -0.1754830   1.1033595  )
        14           H   tau(  14) = (  -0.1519727   0.0877415   1.1033595  )
        15           H   tau(  15) = (   0.0000000  -0.0000000   2.2800590  )
        16           H   tau(  16) = (   0.0000000  -0.0000000   0.5429225  )
        17           H   tau(  17) = (   0.0000000  -0.0000000   1.9452070  )
        18           H   tau(  18) = (   0.0000000  -0.0000000   0.8777746  )
        19           H   tau(  19) = (   0.0000000  -0.0000000   2.4758411  )
        20           H   tau(  20) = (   0.0000000  -0.0000000   0.3471405  )
        21           H   tau(  21) = (   0.0000000  -0.0000000   1.0612419  )
        22           H   tau(  22) = (   0.0000000  -0.0000000   1.7617396  )

     number of k points=  1872 (tetrahedron method)

     Number of k-points >= 100: set verbosity='high' to print them.

     Dense  grid:    36119 G-vectors     FFT dimensions: (  64,  64,  64)

     Estimated max dynamical RAM per process >      10.28 MB

     Estimated total dynamical RAM >     246.66 MB

     The potential is recalculated from file :
     ./_ph0/LaYH20.q_2/LaYH20.save/charge-density

     Starting wfcs are   20 atomic +    1 random wfcs

     Band Structure Calculation
     Davidson diagonalization with overlap
     c_bands:  1 eigenvalues not converged
     c_bands:  1 eigenvalues not converged
     c_bands:  1 eigenvalues not converged
     c_bands:  1 eigenvalues not converged
     c_bands:  1 eigenvalues not converged
     c_bands:  1 eigenvalues not converged
     c_bands:  1 eigenvalues not converged
     c_bands:  1 eigenvalues not converged
     c_bands:  1 eigenvalues not converged
     c_bands:  1 eigenvalues not converged
     c_bands:  1 eigenvalues not converged
     c_bands:  1 eigenvalues not converged
     c_bands:  1 eigenvalues not converged
     c_bands:  1 eigenvalues not converged
     c_bands:  1 eigenvalues not converged
     c_bands:  1 eigenvalues not converged
     c_bands:  1 eigenvalues not converged
     c_bands:  1 eigenvalues not converged
     c_bands:  1 eigenvalues not converged
     c_bands:  1 eigenvalues not converged
     c_bands:  1 eigenvalues not converged
     c_bands:  1 eigenvalues not converged
     c_bands:  1 eigenvalues not converged

     ethr =  2.94E-11,  avg # of iterations = 50.8

     total cpu time spent up to now is      639.2 secs

     End of band structure calculation

     Number of k-points >= 100: set verbosity='high' to print the bands.

     the Fermi energy is    17.1925 ev

     Writing config to output data dir ./_ph0/LaYH20.q_2/LaYH20.save/
 
     [dfpt_tetra]  Dos(E_F)[/Ry] :   0.2115930E+02

     Electron-phonon coefficients for LaYH20                                    

     bravais-lattice index     =            5
     lattice parameter (alat)  =      11.0055  a.u.
     unit-cell volume          =     373.2416 (a.u.)^3
     number of atoms/cell      =           22
     number of atomic types    =            3
     kinetic-energy cut-off    =      80.0000  Ry
     charge density cut-off    =     320.0000  Ry
     convergence threshold     =      1.0E-08
     beta                      =       0.7000
     number of iterations used =            4
     Exchange-correlation= PZ
                           (   1   1   0   0   0   0   0)


     celldm(1)=   11.00550  celldm(2)=    0.00000  celldm(3)=    0.00000
     celldm(4)=    0.82820  celldm(5)=    0.00000  celldm(6)=    0.00000

     crystal axes: (cart. coord. in units of alat)
               a(1) = (  0.2931 -0.1692  0.9410 )  
               a(2) = (  0.0000  0.3384  0.9410 )  
               a(3) = ( -0.2931 -0.1692  0.9410 )  

     reciprocal axes: (cart. coord. in units 2 pi/alat)
               b(1) = (  1.7060 -0.9850  0.3542 )  
               b(2) = (  0.0000  1.9699  0.3542 )  
               b(3) = ( -1.7060 -0.9850  0.3542 )  


     Atoms inside the unit cell: 

     Cartesian axes

     site n.  atom      mass           positions (alat units)
        1     La 138.9055   tau(    1) = (    0.00000   -0.00000    1.41149  )
        2     Y   88.9059   tau(    2) = (    0.00000    0.00000    0.00000  )
        3     H    1.0079   tau(    3) = (   -0.14289    0.08250    2.16187  )
        4     H    1.0079   tau(    4) = (    0.00000   -0.16500    2.16187  )
        5     H    1.0079   tau(    5) = (    0.14289    0.08250    2.16187  )
        6     H    1.0079   tau(    6) = (   -0.14289   -0.08250    0.66111  )
        7     H    1.0079   tau(    7) = (    0.00000    0.16500    0.66111  )
        8     H    1.0079   tau(    8) = (    0.14289   -0.08250    0.66111  )
        9     H    1.0079   tau(    9) = (    0.15197   -0.08774    1.71962  )
       10     H    1.0079   tau(   10) = (    0.00000    0.17548    1.71962  )
       11     H    1.0079   tau(   11) = (   -0.15197   -0.08774    1.71962  )
       12     H    1.0079   tau(   12) = (    0.15197    0.08774    1.10336  )
       13     H    1.0079   tau(   13) = (    0.00000   -0.17548    1.10336  )
       14     H    1.0079   tau(   14) = (   -0.15197    0.08774    1.10336  )
       15     H    1.0079   tau(   15) = (    0.00000   -0.00000    2.28006  )
       16     H    1.0079   tau(   16) = (    0.00000   -0.00000    0.54292  )
       17     H    1.0079   tau(   17) = (    0.00000   -0.00000    1.94521  )
       18     H    1.0079   tau(   18) = (    0.00000   -0.00000    0.87777  )
       19     H    1.0079   tau(   19) = (    0.00000   -0.00000    2.47584  )
       20     H    1.0079   tau(   20) = (    0.00000   -0.00000    0.34714  )
       21     H    1.0079   tau(   21) = (    0.00000   -0.00000    1.06124  )
       22     H    1.0079   tau(   22) = (    0.00000   -0.00000    1.76174  )

     Computing dynamical matrix for 
                    q = (  -0.4264996  -0.2462397   0.2213971 )
 
      2 Sym.Ops. (no q -> -q+G )


     G cutoff =  981.7709  (   1506 G-vectors)     FFT grid: ( 64, 64, 64)
     number of k points=  1872

     PseudoPot. # 1 for La read from file:
     ./La.UPF
     MD5 check sum: 8e5991bce12d7f16f732aa20d6589152
     Pseudo is Norm-conserving, Zval = 11.0
     Generated in analytical, separable form
     Using radial grid of 1253 points,  7 beta functions with: 
                l(1) =   0
                l(2) =   0
                l(3) =   1
                l(4) =   1
                l(5) =   1
                l(6) =   2
                l(7) =   3

     PseudoPot. # 2 for H  read from file:
     ./H.UPF
     MD5 check sum: df8e43189db5a2d7f03d0dd74d71ce72
     Pseudo is Norm-conserving, Zval =  1.0
     Generated in analytical, separable form
     Using radial grid of  929 points,  0 beta functions with: 

     PseudoPot. # 3 for Y  read from file:
     ./Y.UPF
     MD5 check sum: 28b92b02874aa0fef5f1b1d2b706803c
     Pseudo is Norm-conserving, Zval =  3.0
     Generated in analytical, separable form
     Using radial grid of 1223 points,  7 beta functions with: 
                l(1) =   0
                l(2) =   0
                l(3) =   0
                l(4) =   1
                l(5) =   1
                l(6) =   2
                l(7) =   2

     Mode symmetry, C_s (m)     point group:


     Atomic displacements:
     There are   66 irreducible representations

     Representation     1      1 modes -  To be done

     Representation     2      1 modes -  To be done

     Representation     3      1 modes -  To be done

     Representation     4      1 modes -  To be done

     Representation     5      1 modes -  To be done

     Representation     6      1 modes -  To be done

     Representation     7      1 modes -  To be done

     Representation     8      1 modes -  To be done

     Representation     9      1 modes -  To be done

     Representation    10      1 modes -  To be done

     Representation    11      1 modes -  To be done

     Representation    12      1 modes -  To be done

     Representation    13      1 modes -  To be done

     Representation    14      1 modes -  To be done

     Representation    15      1 modes -  To be done

     Representation    16      1 modes -  To be done

     Representation    17      1 modes -  To be done

     Representation    18      1 modes -  To be done

     Representation    19      1 modes -  To be done

     Representation    20      1 modes -  To be done

     Representation    21      1 modes -  To be done

     Representation    22      1 modes -  To be done

     Representation    23      1 modes -  To be done

     Representation    24      1 modes -  To be done

     Representation    25      1 modes -  To be done

     Representation    26      1 modes -  To be done

     Representation    27      1 modes -  To be done

     Representation    28      1 modes -  To be done

     Representation    29      1 modes -  To be done

     Representation    30      1 modes -  To be done

     Representation    31      1 modes -  To be done

     Representation    32      1 modes -  To be done

     Representation    33      1 modes -  To be done

     Representation    34      1 modes -  To be done

     Representation    35      1 modes -  To be done

     Representation    36      1 modes -  To be done

     Representation    37      1 modes -  To be done

     Representation    38      1 modes -  To be done

     Representation    39      1 modes -  To be done

     Representation    40      1 modes -  To be done

     Representation    41      1 modes -  To be done

     Representation    42      1 modes -  To be done

     Representation    43      1 modes -  To be done

     Representation    44      1 modes -  To be done

     Representation    45      1 modes -  To be done

     Representation    46      1 modes -  To be done

     Representation    47      1 modes -  To be done

     Representation    48      1 modes -  To be done

     Representation    49      1 modes -  To be done

     Representation    50      1 modes -  To be done

     Representation    51      1 modes -  To be done

     Representation    52      1 modes -  To be done

     Representation    53      1 modes -  To be done

     Representation    54      1 modes -  To be done

     Representation    55      1 modes -  To be done

     Representation    56      1 modes -  To be done

     Representation    57      1 modes -  To be done

     Representation    58      1 modes -  To be done

     Representation    59      1 modes -  To be done

     Representation    60      1 modes -  To be done

     Representation    61      1 modes -  To be done

     Representation    62      1 modes -  To be done

     Representation    63      1 modes -  To be done

     Representation    64      1 modes -  To be done

     Representation    65      1 modes -  To be done

     Representation    66      1 modes -  To be done



     Alpha used in Ewald sum =   2.8000
     PHONON       :      2h 7m CPU      2h15m WALL



     Representation #   1 mode #   1

     Self-consistent Calculation

      iter #   1 total cpu time :  8209.6 secs   av.it.:   4.9
      thresh= 1.000E-02 alpha_mix =  0.700 |ddv_scf|^2 =  6.625E-06

      iter #   2 total cpu time :  8305.5 secs   av.it.:  13.7
      thresh= 2.574E-04 alpha_mix =  0.700 |ddv_scf|^2 =  6.859E-04

      iter #   3 total cpu time :  8385.3 secs   av.it.:   9.6
      thresh= 2.619E-03 alpha_mix =  0.700 |ddv_scf|^2 =  1.385E-07

      iter #   4 total cpu time :  8479.9 secs   av.it.:  13.9
      thresh= 3.721E-05 alpha_mix =  0.700 |ddv_scf|^2 =  1.742E-07

      iter #   5 total cpu time :  8564.8 secs   av.it.:  12.1
      thresh= 4.173E-05 alpha_mix =  0.700 |ddv_scf|^2 =  3.766E-09

     End of self-consistent calculation

     Convergence has been achieved 


     Representation #   2 mode #   2

     Self-consistent Calculation

      iter #   1 total cpu time :  8611.4 secs   av.it.:   4.6
      thresh= 1.000E-02 alpha_mix =  0.700 |ddv_scf|^2 =  7.487E-06

      iter #   2 total cpu time :  8707.0 secs   av.it.:  13.6
      thresh= 2.736E-04 alpha_mix =  0.700 |ddv_scf|^2 =  7.776E-04

      iter #   3 total cpu time :  8784.0 secs   av.it.:   9.6
      thresh= 2.789E-03 alpha_mix =  0.700 |ddv_scf|^2 =  1.504E-07

      iter #   4 total cpu time :  8883.1 secs   av.it.:  13.9
      thresh= 3.878E-05 alpha_mix =  0.700 |ddv_scf|^2 =  1.781E-07

      iter #   5 total cpu time :  8974.9 secs   av.it.:  12.1
      thresh= 4.220E-05 alpha_mix =  0.700 |ddv_scf|^2 =  5.030E-09

     End of self-consistent calculation

     Convergence has been achieved 


     Representation #   3 mode #   3

     Self-consistent Calculation

      iter #   1 total cpu time :  9026.1 secs   av.it.:   5.0
      thresh= 1.000E-02 alpha_mix =  0.700 |ddv_scf|^2 =  6.709E-06

      iter #   2 total cpu time :  9118.2 secs   av.it.:  13.7
      thresh= 2.590E-04 alpha_mix =  0.700 |ddv_scf|^2 =  6.889E-04

      iter #   3 total cpu time :  9190.7 secs   av.it.:   9.6
      thresh= 2.625E-03 alpha_mix =  0.700 |ddv_scf|^2 =  2.732E-07

      iter #   4 total cpu time :  9289.9 secs   av.it.:  13.4
      thresh= 5.227E-05 alpha_mix =  0.700 |ddv_scf|^2 =  1.476E-07

      iter #   5 total cpu time :  9375.0 secs   av.it.:  12.4
      thresh= 3.841E-05 alpha_mix =  0.700 |ddv_scf|^2 =  4.593E-09

     End of self-consistent calculation

     Convergence has been achieved 


     Representation #   4 mode #   4

     Self-consistent Calculation

      iter #   1 total cpu time :  9447.8 secs   av.it.:   8.7
      thresh= 1.000E-02 alpha_mix =  0.700 |ddv_scf|^2 =  9.184E-04

      iter #   2 total cpu time :  9542.5 secs   av.it.:  13.6
      thresh= 3.031E-03 alpha_mix =  0.700 |ddv_scf|^2 =  9.585E-02

      iter #   3 total cpu time :  9624.7 secs   av.it.:  11.4
      thresh= 1.000E-02 alpha_mix =  0.700 |ddv_scf|^2 =  1.296E-05

      iter #   4 total cpu time :  9746.3 secs   av.it.:  13.9
      thresh= 3.600E-04 alpha_mix =  0.700 |ddv_scf|^2 =  2.138E-05

      iter #   5 total cpu time :  9835.6 secs   av.it.:  12.0
      thresh= 4.624E-04 alpha_mix =  0.700 |ddv_scf|^2 =  6.026E-07

      iter #   6 total cpu time :  9925.6 secs   av.it.:  13.3
      thresh= 7.763E-05 alpha_mix =  0.700 |ddv_scf|^2 =  3.470E-09

     End of self-consistent calculation

     Convergence has been achieved 


     Representation #   5 mode #   5

     Self-consistent Calculation

      iter #   1 total cpu time :  9975.6 secs   av.it.:   4.9
      thresh= 1.000E-02 alpha_mix =  0.700 |ddv_scf|^2 =  8.082E-06

      iter #   2 total cpu time : 10082.7 secs   av.it.:  13.6
      thresh= 2.843E-04 alpha_mix =  0.700 |ddv_scf|^2 =  8.379E-04

      iter #   3 total cpu time : 10160.0 secs   av.it.:   9.6
      thresh= 2.895E-03 alpha_mix =  0.700 |ddv_scf|^2 =  1.290E-07

      iter #   4 total cpu time : 10277.2 secs   av.it.:  14.1
      thresh= 3.592E-05 alpha_mix =  0.700 |ddv_scf|^2 =  1.753E-07

[...]


     Representation #  53 mode #  53

     Self-consistent Calculation

      iter #   1 total cpu time :212250.2 secs   av.it.:   4.0
      thresh= 1.000E-02 alpha_mix =  0.700 |ddv_scf|^2 =  6.606E-09

     End of self-consistent calculation

     Convergence has been achieved 


     Representation #  54 mode #  54

     Self-consistent Calculation

      iter #   1 total cpu time :212297.7 secs   av.it.:   4.0
      thresh= 1.000E-02 alpha_mix =  0.700 |ddv_scf|^2 =  1.822E-08

      iter #   2 total cpu time :212389.4 secs   av.it.:  14.0
      thresh= 1.350E-05 alpha_mix =  0.700 |ddv_scf|^2 =  3.065E-09

     End of self-consistent calculation

     Convergence has been achieved 


     Representation #  55 mode #  55

     Self-consistent Calculation

      iter #   1 total cpu time :212442.2 secs   av.it.:   4.3
      thresh= 1.000E-02 alpha_mix =  0.700 |ddv_scf|^2 =  2.237E-08

      iter #   2 total cpu time :212545.4 secs   av.it.:  14.6
      thresh= 1.496E-05 alpha_mix =  0.700 |ddv_scf|^2 =  6.115E-09

     End of self-consistent calculation

     Convergence has been achieved 


     Representation #  56 mode #  56

     Self-consistent Calculation

      iter #   1 total cpu time :212583.7 secs   av.it.:   3.8
      thresh= 1.000E-02 alpha_mix =  0.700 |ddv_scf|^2 =  1.316E-09

     End of self-consistent calculation

     Convergence has been achieved 


     Representation #  57 mode #  57

     Self-consistent Calculation

      iter #   1 total cpu time :212619.2 secs   av.it.:   3.8
      thresh= 1.000E-02 alpha_mix =  0.700 |ddv_scf|^2 =  1.552E-09

     End of self-consistent calculation

     Convergence has been achieved 


     Representation #  58 mode #  58

     Self-consistent Calculation

      iter #   1 total cpu time :212658.2 secs   av.it.:   4.0
      thresh= 1.000E-02 alpha_mix =  0.700 |ddv_scf|^2 =  1.731E-08

      iter #   2 total cpu time :212761.5 secs   av.it.:  14.1
      thresh= 1.316E-05 alpha_mix =  0.700 |ddv_scf|^2 =  2.915E-09

     End of self-consistent calculation

     Convergence has been achieved 


     Representation #  59 mode #  59

     Self-consistent Calculation

      iter #   1 total cpu time :212806.4 secs   av.it.:   4.2
      thresh= 1.000E-02 alpha_mix =  0.700 |ddv_scf|^2 =  2.017E-08

      iter #   2 total cpu time :212903.4 secs   av.it.:  14.6
      thresh= 1.420E-05 alpha_mix =  0.700 |ddv_scf|^2 =  5.043E-09

     End of self-consistent calculation

     Convergence has been achieved 


     Representation #  60 mode #  60

     Self-consistent Calculation

      iter #   1 total cpu time :212944.2 secs   av.it.:   4.3
      thresh= 1.000E-02 alpha_mix =  0.700 |ddv_scf|^2 =  2.237E-08

      iter #   2 total cpu time :213044.3 secs   av.it.:  14.6
      thresh= 1.496E-05 alpha_mix =  0.700 |ddv_scf|^2 =  6.115E-09

     End of self-consistent calculation

     Convergence has been achieved 


     Representation #  61 mode #  61

     Self-consistent Calculation

      iter #   1 total cpu time :213089.4 secs   av.it.:   4.3
      thresh= 1.000E-02 alpha_mix =  0.700 |ddv_scf|^2 =  2.179E-08

      iter #   2 total cpu time :213188.6 secs   av.it.:  14.5
      thresh= 1.476E-05 alpha_mix =  0.700 |ddv_scf|^2 =  5.455E-09

     End of self-consistent calculation

     Convergence has been achieved 


     Representation #  62 mode #  62

     Self-consistent Calculation

      iter #   1 total cpu time :213227.3 secs   av.it.:   4.0
      thresh= 1.000E-02 alpha_mix =  0.700 |ddv_scf|^2 =  1.731E-08

      iter #   2 total cpu time :213326.2 secs   av.it.:  14.1
      thresh= 1.316E-05 alpha_mix =  0.700 |ddv_scf|^2 =  2.915E-09

     End of self-consistent calculation

     Convergence has been achieved 


     Representation #  63 mode #  63

     Self-consistent Calculation

      iter #   1 total cpu time :213366.0 secs   av.it.:   4.0
      thresh= 1.000E-02 alpha_mix =  0.700 |ddv_scf|^2 =  6.981E-09

     End of self-consistent calculation

     Convergence has been achieved 


     Representation #  64 mode #  64

     Self-consistent Calculation

      iter #   1 total cpu time :213407.6 secs   av.it.:   3.9
      thresh= 1.000E-02 alpha_mix =  0.700 |ddv_scf|^2 =  1.793E-08

      iter #   2 total cpu time :213503.1 secs   av.it.:  13.7
      thresh= 1.339E-05 alpha_mix =  0.700 |ddv_scf|^2 =  2.826E-09

     End of self-consistent calculation

     Convergence has been achieved 


     Representation #  65 mode #  65

     Self-consistent Calculation

      iter #   1 total cpu time :213543.2 secs   av.it.:   3.9
      thresh= 1.000E-02 alpha_mix =  0.700 |ddv_scf|^2 =  3.824E-09

     End of self-consistent calculation

     Convergence has been achieved 


     Representation #  66 mode #  66

     Self-consistent Calculation

      iter #   1 total cpu time :213609.1 secs   av.it.:   7.7
      thresh= 1.000E-02 alpha_mix =  0.700 |ddv_scf|^2 =  9.961E-07

      iter #   2 total cpu time :213713.5 secs   av.it.:  14.6
      thresh= 9.980E-05 alpha_mix =  0.700 |ddv_scf|^2 =  3.578E-07

      iter #   3 total cpu time :213809.4 secs   av.it.:  14.0
      thresh= 5.981E-05 alpha_mix =  0.700 |ddv_scf|^2 =  5.982E-10

     End of self-consistent calculation

     Convergence has been achieved 
 
     Number of q in the star =    6
     List of q in the star:
          1   1.279498822   0.738718989   0.132838276
          2  -0.000000000  -1.477437978   0.132838276
          3  -1.279498822   0.738718989   0.132838276
          4  -1.279498822  -0.738718989  -0.132838276
          5   1.279498822  -0.738718989  -0.132838276
          6   0.000000000   1.477437978  -0.132838276

     Diagonalizing the dynamical matrix

     q = (    1.279498822   0.738718989   0.132838276 ) 

 **************************************************************************
     freq (    1) =     -63.268554 [THz] =   -2110.411782 [cm-1]
     freq (    2) =     -56.014889 [THz] =   -1868.455590 [cm-1]
     freq (    3) =     -51.819555 [THz] =   -1728.514293 [cm-1]
     freq (    4) =     -49.266543 [THz] =   -1643.354978 [cm-1]
     freq (    5) =     -48.916081 [THz] =   -1631.664844 [cm-1]
     freq (    6) =     -43.278314 [THz] =   -1443.609165 [cm-1]
     freq (    7) =     -32.473402 [THz] =   -1083.196097 [cm-1]
     freq (    8) =     -30.387113 [THz] =   -1013.604989 [cm-1]
     freq (    9) =     -27.645254 [THz] =    -922.146422 [cm-1]
     freq (   10) =     -21.949621 [THz] =    -732.160561 [cm-1]
     freq (   11) =     -19.715466 [THz] =    -657.637173 [cm-1]
     freq (   12) =     -18.402843 [THz] =    -613.852758 [cm-1]
     freq (   13) =     -11.272948 [THz] =    -376.025079 [cm-1]
     freq (   14) =     -11.009185 [THz] =    -367.226898 [cm-1]
     freq (   15) =      -4.998898 [THz] =    -166.745297 [cm-1]
     freq (   16) =       1.600467 [THz] =      53.385830 [cm-1]
     freq (   17) =       4.029628 [THz] =     134.413937 [cm-1]
     freq (   18) =       5.050770 [THz] =     168.475568 [cm-1]
     freq (   19) =       5.930428 [THz] =     197.817794 [cm-1]
     freq (   20) =       8.047565 [THz] =     268.437876 [cm-1]
     freq (   21) =      10.185640 [THz] =     339.756388 [cm-1]
     freq (   22) =      11.718980 [THz] =     390.903087 [cm-1]
     freq (   23) =      13.385583 [THz] =     446.494975 [cm-1]
     freq (   24) =      16.380522 [THz] =     546.395410 [cm-1]
     freq (   25) =      20.601611 [THz] =     687.195765 [cm-1]
     freq (   26) =      23.666213 [THz] =     789.419900 [cm-1]
     freq (   27) =      24.681714 [THz] =     823.293343 [cm-1]
     freq (   28) =      25.511661 [THz] =     850.977395 [cm-1]
     freq (   29) =      26.675868 [THz] =     889.811179 [cm-1]
     freq (   30) =      26.780937 [THz] =     893.315906 [cm-1]
     freq (   31) =      27.342206 [THz] =     912.037817 [cm-1]
     freq (   32) =      28.686835 [THz] =     956.889803 [cm-1]
     freq (   33) =      28.953528 [THz] =     965.785744 [cm-1]
     freq (   34) =      29.713258 [THz] =     991.127610 [cm-1]
     freq (   35) =      31.366730 [THz] =    1046.281494 [cm-1]
     freq (   36) =      32.307508 [THz] =    1077.662477 [cm-1]
     freq (   37) =      32.318807 [THz] =    1078.039364 [cm-1]
     freq (   38) =      33.345728 [THz] =    1112.293766 [cm-1]
     freq (   39) =      33.889043 [THz] =    1130.416797 [cm-1]
     freq (   40) =      35.214448 [THz] =    1174.627542 [cm-1]
     freq (   41) =      35.613489 [THz] =    1187.938132 [cm-1]
     freq (   42) =      35.673132 [THz] =    1189.927612 [cm-1]
     freq (   43) =      37.186080 [THz] =    1240.394112 [cm-1]
     freq (   44) =      38.735364 [THz] =    1292.072652 [cm-1]
     freq (   45) =      40.359948 [THz] =    1346.262949 [cm-1]
     freq (   46) =      41.153184 [THz] =    1372.722469 [cm-1]
     freq (   47) =      41.558206 [THz] =    1386.232525 [cm-1]
     freq (   48) =      42.662638 [THz] =    1423.072425 [cm-1]
     freq (   49) =      42.716652 [THz] =    1424.874151 [cm-1]
     freq (   50) =      46.895972 [THz] =    1564.281247 [cm-1]
     freq (   51) =      47.620290 [THz] =    1588.441909 [cm-1]
     freq (   52) =      47.813335 [THz] =    1594.881191 [cm-1]
     freq (   53) =      48.296519 [THz] =    1610.998467 [cm-1]
     freq (   54) =      49.748575 [THz] =    1659.433828 [cm-1]
     freq (   55) =      51.539147 [THz] =    1719.160906 [cm-1]
     freq (   56) =      51.790417 [THz] =    1727.542359 [cm-1]
     freq (   57) =      53.198545 [THz] =    1774.512466 [cm-1]
     freq (   58) =      54.208782 [THz] =    1808.210330 [cm-1]
     freq (   59) =      56.311329 [THz] =    1878.343735 [cm-1]
     freq (   60) =      56.980766 [THz] =    1900.673756 [cm-1]
     freq (   61) =      58.371578 [THz] =    1947.066269 [cm-1]
     freq (   62) =      59.053351 [THz] =    1969.807746 [cm-1]
     freq (   63) =      61.268190 [THz] =    2043.686844 [cm-1]
     freq (   64) =      67.815227 [THz] =    2262.072494 [cm-1]
     freq (   65) =      75.417691 [THz] =    2515.663399 [cm-1]
     freq (   66) =     105.299392 [THz] =    3512.409626 [cm-1]
 **************************************************************************

     Mode symmetry, C_s (m)     point group:

     freq (   1-   1) =      -2110.4  [cm-1]   --> A''                
     freq (   2-   2) =      -1868.5  [cm-1]   --> A''                
     freq (   3-   3) =      -1728.5  [cm-1]   --> A''                
     freq (   4-   4) =      -1643.4  [cm-1]   --> A'                 
     freq (   5-   5) =      -1631.7  [cm-1]   --> A''                
     freq (   6-   6) =      -1443.6  [cm-1]   --> A''                
     freq (   7-   7) =      -1083.2  [cm-1]   --> A''                
     freq (   8-   8) =      -1013.6  [cm-1]   --> A''                
     freq (   9-   9) =       -922.1  [cm-1]   --> A''                
     freq (  10-  10) =       -732.2  [cm-1]   --> A'                 
     freq (  11-  11) =       -657.6  [cm-1]   --> A''                
     freq (  12-  12) =       -613.9  [cm-1]   --> A''                
     freq (  13-  13) =       -376.0  [cm-1]   --> A''                
     freq (  14-  14) =       -367.2  [cm-1]   --> A'                 
     freq (  15-  15) =       -166.7  [cm-1]   --> A'                 
     freq (  16-  16) =         53.4  [cm-1]   --> A''                
     freq (  17-  17) =        134.4  [cm-1]   --> A'                 
     freq (  18-  18) =        168.5  [cm-1]   --> A'                 
     freq (  19-  19) =        197.8  [cm-1]   --> A''                
     freq (  20-  20) =        268.4  [cm-1]   --> A'                 
     freq (  21-  21) =        339.8  [cm-1]   --> A'                 
     freq (  22-  22) =        390.9  [cm-1]   --> A'                 
     freq (  23-  23) =        446.5  [cm-1]   --> A''                
     freq (  24-  24) =        546.4  [cm-1]   --> A'                 
     freq (  25-  25) =        687.2  [cm-1]   --> A'                 
     freq (  26-  26) =        789.4  [cm-1]   --> A'                 
     freq (  27-  27) =        823.3  [cm-1]   --> A''                
     freq (  28-  28) =        851.0  [cm-1]   --> A'                 
     freq (  29-  29) =        889.8  [cm-1]   --> A''                
     freq (  30-  30) =        893.3  [cm-1]   --> A'                 
     freq (  31-  31) =        912.0  [cm-1]   --> A'                 
     freq (  32-  32) =        956.9  [cm-1]   --> A'                 
     freq (  33-  33) =        965.8  [cm-1]   --> A'                 
     freq (  34-  34) =        991.1  [cm-1]   --> A'                 
     freq (  35-  35) =       1046.3  [cm-1]   --> A'                 
     freq (  36-  36) =       1077.7  [cm-1]   --> A'                 
     freq (  37-  37) =       1078.0  [cm-1]   --> A''                
     freq (  38-  38) =       1112.3  [cm-1]   --> A'                 
     freq (  39-  39) =       1130.4  [cm-1]   --> A''                
     freq (  40-  40) =       1174.6  [cm-1]   --> A'                 
     freq (  41-  41) =       1187.9  [cm-1]   --> A''                
     freq (  42-  42) =       1189.9  [cm-1]   --> A'                 
     freq (  43-  43) =       1240.4  [cm-1]   --> A'                 
     freq (  44-  44) =       1292.1  [cm-1]   --> A'                 
     freq (  45-  45) =       1346.3  [cm-1]   --> A'                 
     freq (  46-  46) =       1372.7  [cm-1]   --> A''                
     freq (  47-  47) =       1386.2  [cm-1]   --> A'                 
     freq (  48-  48) =       1423.1  [cm-1]   --> A'                 
     freq (  49-  49) =       1424.9  [cm-1]   --> A''                
     freq (  50-  50) =       1564.3  [cm-1]   --> A'                 
     freq (  51-  51) =       1588.4  [cm-1]   --> A''                
     freq (  52-  52) =       1594.9  [cm-1]   --> A'                 
     freq (  53-  53) =       1611.0  [cm-1]   --> A'                 
     freq (  54-  54) =       1659.4  [cm-1]   --> A'                 
     freq (  55-  55) =       1719.2  [cm-1]   --> A''                
     freq (  56-  56) =       1727.5  [cm-1]   --> A'                 
     freq (  57-  57) =       1774.5  [cm-1]   --> A'                 
     freq (  58-  58) =       1808.2  [cm-1]   --> A'                 
     freq (  59-  59) =       1878.3  [cm-1]   --> A'                 
     freq (  60-  60) =       1900.7  [cm-1]   --> A'                 
     freq (  61-  61) =       1947.1  [cm-1]   --> A''                
     freq (  62-  62) =       1969.8  [cm-1]   --> A'                 
     freq (  63-  63) =       2043.7  [cm-1]   --> A'                 
     freq (  64-  64) =       2262.1  [cm-1]   --> A'                 
     freq (  65-  65) =       2515.7  [cm-1]   --> A''                
     freq (  66-  66) =       3512.4  [cm-1]   --> A''                
 
     init_run     :      0.76s CPU      3.35s WALL (      10 calls)
     electrons    :   4761.55s CPU   4936.70s WALL (      10 calls)

     Called by init_run:
     wfcinit      :      0.00s CPU      0.07s WALL (      10 calls)
     potinit      :      0.02s CPU      2.50s WALL (      10 calls)
     hinit0       :      0.34s CPU      0.34s WALL (      10 calls)

     Called by electrons:
     c_bands      :   4747.39s CPU   4922.49s WALL (      10 calls)
     v_of_rho     :      0.01s CPU      0.01s WALL (      11 calls)

     Called by c_bands:
     init_us_2    :    529.26s CPU    568.75s WALL ( 3643548 calls)
     init_us_2:cp :    519.63s CPU    559.74s WALL ( 3643548 calls)
     cegterg      :   4356.67s CPU   4453.58s WALL (   58454 calls)

     Called by *egterg:
     cdiaghg      :   1310.75s CPU   1330.28s WALL ( 1015360 calls)
     h_psi        : 141926.23s CPU 146174.62s WALL (49210921 calls)
     g_psi        :      8.30s CPU      8.44s WALL (  995760 calls)

     Called by h_psi:
     h_psi:calbec :   5052.56s CPU   5200.82s WALL (49210921 calls)
     vloc_psi     : 134701.44s CPU 138730.17s WALL (49210921 calls)
     add_vuspsi   :   1662.74s CPU   1719.02s WALL (49210921 calls)

     General routines
     calbec       :   7377.36s CPU   7613.62s WALL (******** calls)
     fft          :      0.89s CPU      1.23s WALL (    7018 calls)
     ffts         :   1245.85s CPU   1271.93s WALL (  687456 calls)
     fftw         : 160815.30s CPU 165489.11s WALL (******** calls)
     davcio       :    526.67s CPU   6116.85s WALL (13106544 calls)
 
     Parallel routines
 
     PHONON       :   2d 7h53m CPU   2d11h23m WALL

     INITIALIZATION: 
     phq_setup    :      1.75s CPU      3.60s WALL (      10 calls)
     phq_init     :     39.20s CPU     40.45s WALL (      10 calls)
 
     phq_init     :     39.20s CPU     40.45s WALL (      10 calls)
     init_vloc    :      0.22s CPU      0.22s WALL (      11 calls)
     init_us_1    :      0.15s CPU      0.15s WALL (      11 calls)
     init_us_2    :    529.26s CPU    568.75s WALL ( 3643548 calls)
 
     DYNAMICAL MATRIX:
     dynmat0      :     34.00s CPU     34.55s WALL (      10 calls)
     phqscf       : 196377.67s CPU 208791.23s WALL (      10 calls)
     dynmatrix    :     10.38s CPU     10.73s WALL (      10 calls)
 
     phqscf       : 196377.67s CPU 208791.23s WALL (      10 calls)
     solve_linter : 195959.44s CPU 208047.42s WALL (     616 calls)
     drhodv       :    415.93s CPU    444.10s WALL (     616 calls)
 
     dynmat0      :     34.00s CPU     34.55s WALL (      10 calls)
     dynmat_us    :     33.12s CPU     33.58s WALL (      10 calls)
     d2ionq       :      0.85s CPU      0.86s WALL (      10 calls)
 
     dynmat_us    :     33.12s CPU     33.58s WALL (      10 calls)
 
     phqscf       : 196377.67s CPU 208791.23s WALL (      10 calls)
     solve_linter : 195959.44s CPU 208047.42s WALL (     616 calls)
 
     solve_linter : 195959.44s CPU 208047.42s WALL (     616 calls)
     dvqpsi_us    :   4993.47s CPU   5147.86s WALL (  646800 calls)
     sth_kernel   : 190670.42s CPU 201377.89s WALL (    2277 calls)
     apply_dpot_b :   9245.50s CPU   9666.07s WALL ( 1713452 calls)
     ortho        :    365.81s CPU    385.37s WALL ( 2360252 calls)
     cgsolve      : 148518.16s CPU 152993.43s WALL ( 2360252 calls)
     incdrhoscf   :  31278.51s CPU  32002.24s WALL ( 2360252 calls)
     dv_of_drho   :      0.99s CPU      1.34s WALL (    2325 calls)
     mix_pot      :     34.17s CPU    229.90s WALL (    2277 calls)
     psymdvscf    :     72.61s CPU     73.60s WALL (    1742 calls)
 
     dvqpsi_us    :   4993.47s CPU   5147.86s WALL (  646800 calls)
     dvqpsi_us_on :    333.93s CPU    341.39s WALL (  646800 calls)
 
     cgsolve      : 148518.16s CPU 152993.43s WALL ( 2360252 calls)
     ch_psi       : 145832.42s CPU 150208.94s WALL (48137107 calls)
 
     ch_psi       : 145832.42s CPU 150208.94s WALL (48137107 calls)
     h_psi        : 141926.23s CPU 146174.62s WALL (49210921 calls)
     last         :   5829.63s CPU   6015.79s WALL (48137107 calls)
 
     h_psi        : 141926.23s CPU 146174.62s WALL (49210921 calls)
     add_vuspsi   :   1662.74s CPU   1719.02s WALL (49210921 calls)
 
     incdrhoscf   :  31278.51s CPU  32002.24s WALL ( 2360252 calls)
 
 
      General routines
     calbec       :   7377.36s CPU   7613.62s WALL (******** calls)
     fft          :      0.89s CPU      1.23s WALL (    7018 calls)
     ffts         :   1245.85s CPU   1271.93s WALL (  687456 calls)
     fftw         : 160815.30s CPU 165489.11s WALL (******** calls)
     davcio       :    526.67s CPU   6116.85s WALL (13106544 calls)
     write_rec    :      3.34s CPU   1013.15s WALL (    2893 calls)
 
 
     PHONON       :   2d 7h53m CPU   2d11h23m WALL

 
   This run was terminated on:   6:59:37  29May2022            

=------------------------------------------------------------------------------=
   JOB DONE.
=------------------------------------------------------------------------------=
