
     Program PHONON v.7.0 starts on 29May2022 at  6:59:38 

     This program is part of the open-source Quantum ESPRESSO suite
     for quantum simulation of materials; please cite
         "P. Giannozzi et al., J. Phys.:Condens. Matter 21 395502 (2009);
         "P. Giannozzi et al., J. Phys.:Condens. Matter 29 465901 (2017);
         "P. Giannozzi et al., J. Chem. Phys. 152 154105 (2020);
          URL http://www.quantum-espresso.org", 
     in publications or presentations arising from this work. More details at
     http://www.quantum-espresso.org/quote

     Parallel version (MPI), running on    20 processors

     MPI processes distributed on     1 nodes
     R & G space division:  proc/nbgrp/npool/nimage =      20
     314461 MiB available memory on the printing compute node when the environment starts
 
     Reading input from /home/mgrebenyuk/QE/Examples/LaYH20/200GPa/4x4x4/elph.in

     Reading xml data from directory:

     ./LaYH20.save/

     IMPORTANT: XC functional enforced from input :
     Exchange-correlation= PZ
                           (   1   1   0   0   0   0   0)
     Any further DFT definition will be discarded
     Please, verify this is what you really want

 
     Parallelization info
     --------------------
     sticks:   dense  smooth     PW     G-vecs:    dense   smooth      PW
     Min          86      86     27                 1805     1805     313
     Max          87      87     28                 1808     1808     314
     Sum        1729    1729    543                36119    36119    6279
 
     Using Slab Decomposition
 
     Reading collected, re-writing distributed wavefunctions


     Dynamical matrices for ( 4, 4, 4)  uniform grid of q-points
     With a half shift
     (  10 q-points):
       N         xq(1)         xq(2)         xq(3) 
       1   0.000000000   0.000000000   0.132838276
       2  -0.426499607  -0.246239663   0.221397127
       3   0.852999215   0.492479326  -0.044279425
       4   0.426499607   0.246239663   0.044279425
       5  -0.426499607   0.246239663   0.309955978
       6   0.852999215   0.984958652   0.044279425
       7   0.426499607   0.738718989   0.132838276
       8   0.852999215  -0.492479326  -0.221397127
       9   0.000000000   0.000000000   0.398514829
      10   1.279498822   0.738718989   0.132838276
     Because shifted q grid is used, q2r will not work !

     Saving dvscf to file. Distribute only q points, not irreducible represetations.

     Calculation of q =    0.0000000   0.0000000   0.1328383

     Subspace diagonalization in iterative solution of the eigenvalue problem:
     a serial algorithm will be used

     [opt_tetra]  Optimized tetrahedron method is used.
 
     Parallelization info
     --------------------
     sticks:   dense  smooth     PW     G-vecs:    dense   smooth      PW
     Min          86      86     27                 1805     1805     314
     Max          87      87     28                 1808     1808     316
     Sum        1729    1729    543                36119    36119    6291
 
     Using Slab Decomposition
 

     Title: 
      Electron-phonon for LaYH20                                                


     bravais-lattice index     =            5
     lattice parameter (alat)  =      11.0055  a.u.
     unit-cell volume          =     373.2416 (a.u.)^3
     number of atoms/cell      =           22
     number of atomic types    =            3
     number of electrons       =        34.00
     number of Kohn-Sham states=           21
     kinetic-energy cutoff     =      80.0000  Ry
     charge density cutoff     =     320.0000  Ry
     Exchange-correlation= PZ
                           (   1   1   0   0   0   0   0)

     celldm(1)=  11.005504  celldm(2)=   0.000000  celldm(3)=   0.000000
     celldm(4)=   0.828204  celldm(5)=   0.000000  celldm(6)=   0.000000

     crystal axes: (cart. coord. in units of alat)
               a(1) = (   0.293084  -0.169212   0.940994 )  
               a(2) = (   0.000000   0.338424   0.940994 )  
               a(3) = (  -0.293084  -0.169212   0.940994 )  

     reciprocal axes: (cart. coord. in units 2 pi/alat)
               b(1) = (  1.705998 -0.984959  0.354235 )  
               b(2) = (  0.000000  1.969917  0.354235 )  
               b(3) = ( -1.705998 -0.984959  0.354235 )  


     PseudoPot. # 1 for La read from file:
     ./La.UPF
     MD5 check sum: 8e5991bce12d7f16f732aa20d6589152
     Pseudo is Norm-conserving, Zval = 11.0
     Generated in analytical, separable form
     Using radial grid of 1253 points,  7 beta functions with: 
                l(1) =   0
                l(2) =   0
                l(3) =   1
                l(4) =   1
                l(5) =   1
                l(6) =   2
                l(7) =   3

     PseudoPot. # 2 for H  read from file:
     ./H.UPF
     MD5 check sum: df8e43189db5a2d7f03d0dd74d71ce72
     Pseudo is Norm-conserving, Zval =  1.0
     Generated in analytical, separable form
     Using radial grid of  929 points,  0 beta functions with: 

     PseudoPot. # 3 for Y  read from file:
     ./Y.UPF
     MD5 check sum: 28b92b02874aa0fef5f1b1d2b706803c
     Pseudo is Norm-conserving, Zval =  3.0
     Generated in analytical, separable form
     Using radial grid of 1223 points,  7 beta functions with: 
                l(1) =   0
                l(2) =   0
                l(3) =   0
                l(4) =   1
                l(5) =   1
                l(6) =   2
                l(7) =   2

     atomic species   valence    mass     pseudopotential
        La            11.00   138.90547     La( 1.00)
        H              1.00     1.00794     H ( 1.00)
        Y              3.00    88.90585     Y ( 1.00)

     12 Sym. Ops., with inversion, found



   Cartesian axes

     site n.     atom                  positions (alat units)
         1           La  tau(   1) = (   0.0000000  -0.0000000   1.4114908  )
         2           Y   tau(   2) = (   0.0000000   0.0000000   0.0000000  )
         3           H   tau(   3) = (  -0.1428933   0.0824995   2.1618675  )
         4           H   tau(   4) = (   0.0000000  -0.1649990   2.1618675  )
         5           H   tau(   5) = (   0.1428933   0.0824995   2.1618675  )
         6           H   tau(   6) = (  -0.1428933  -0.0824995   0.6611140  )
         7           H   tau(   7) = (   0.0000000   0.1649990   0.6611140  )
         8           H   tau(   8) = (   0.1428933  -0.0824995   0.6611140  )
         9           H   tau(   9) = (   0.1519727  -0.0877415   1.7196220  )
        10           H   tau(  10) = (   0.0000000   0.1754830   1.7196220  )
        11           H   tau(  11) = (  -0.1519727  -0.0877415   1.7196220  )
        12           H   tau(  12) = (   0.1519727   0.0877415   1.1033595  )
        13           H   tau(  13) = (   0.0000000  -0.1754830   1.1033595  )
        14           H   tau(  14) = (  -0.1519727   0.0877415   1.1033595  )
        15           H   tau(  15) = (   0.0000000  -0.0000000   2.2800590  )
        16           H   tau(  16) = (   0.0000000  -0.0000000   0.5429225  )
        17           H   tau(  17) = (   0.0000000  -0.0000000   1.9452070  )
        18           H   tau(  18) = (   0.0000000  -0.0000000   0.8777746  )
        19           H   tau(  19) = (   0.0000000  -0.0000000   2.4758411  )
        20           H   tau(  20) = (   0.0000000  -0.0000000   0.3471405  )
        21           H   tau(  21) = (   0.0000000  -0.0000000   1.0612419  )
        22           H   tau(  22) = (   0.0000000  -0.0000000   1.7617396  )

     number of k points=   728 (tetrahedron method)

     Number of k-points >= 100: set verbosity='high' to print them.

     Dense  grid:    36119 G-vectors     FFT dimensions: (  64,  64,  64)

     Estimated max dynamical RAM per process >      10.63 MB

     Estimated total dynamical RAM >     212.56 MB

     The potential is recalculated from file :
     ./_ph0/LaYH20.q_1/LaYH20.save/charge-density

     Starting wfcs are   20 atomic +    1 random wfcs

     Band Structure Calculation
     Davidson diagonalization with overlap
     c_bands:  1 eigenvalues not converged
     c_bands:  1 eigenvalues not converged
     c_bands:  1 eigenvalues not converged
     c_bands:  1 eigenvalues not converged
     c_bands:  1 eigenvalues not converged
     c_bands:  1 eigenvalues not converged
     c_bands:  1 eigenvalues not converged
     c_bands:  1 eigenvalues not converged
     c_bands:  1 eigenvalues not converged
     c_bands:  1 eigenvalues not converged
     c_bands:  1 eigenvalues not converged

     ethr =  2.94E-11,  avg # of iterations = 50.2

     total cpu time spent up to now is      218.8 secs

     End of band structure calculation

     Number of k-points >= 100: set verbosity='high' to print the bands.

     the Fermi energy is    17.1925 ev

     Writing config to output data dir ./_ph0/LaYH20.q_1/LaYH20.save/
 
     [dfpt_tetra]  Dos(E_F)[/Ry] :   0.2115930E+02

      Electron-phonon for LaYH20                                                

     bravais-lattice index     =            5
     lattice parameter (alat)  =      11.0055  a.u.
     unit-cell volume          =     373.2416 (a.u.)^3
     number of atoms/cell      =           22
     number of atomic types    =            3
     kinetic-energy cut-off    =      80.0000  Ry
     charge density cut-off    =     320.0000  Ry
     convergence threshold     =      1.0E-08
     beta                      =       0.7000
     number of iterations used =            4
     Exchange-correlation= PZ
                           (   1   1   0   0   0   0   0)


     celldm(1)=   11.00550  celldm(2)=    0.00000  celldm(3)=    0.00000
     celldm(4)=    0.82820  celldm(5)=    0.00000  celldm(6)=    0.00000

     crystal axes: (cart. coord. in units of alat)
               a(1) = (  0.2931 -0.1692  0.9410 )  
               a(2) = (  0.0000  0.3384  0.9410 )  
               a(3) = ( -0.2931 -0.1692  0.9410 )  

     reciprocal axes: (cart. coord. in units 2 pi/alat)
               b(1) = (  1.7060 -0.9850  0.3542 )  
               b(2) = (  0.0000  1.9699  0.3542 )  
               b(3) = ( -1.7060 -0.9850  0.3542 )  


     Atoms inside the unit cell: 

     Cartesian axes

     site n.  atom      mass           positions (alat units)
        1     La 138.9055   tau(    1) = (    0.00000   -0.00000    1.41149  )
        2     Y   88.9059   tau(    2) = (    0.00000    0.00000    0.00000  )
        3     H    1.0079   tau(    3) = (   -0.14289    0.08250    2.16187  )
        4     H    1.0079   tau(    4) = (    0.00000   -0.16500    2.16187  )
        5     H    1.0079   tau(    5) = (    0.14289    0.08250    2.16187  )
        6     H    1.0079   tau(    6) = (   -0.14289   -0.08250    0.66111  )
        7     H    1.0079   tau(    7) = (    0.00000    0.16500    0.66111  )
        8     H    1.0079   tau(    8) = (    0.14289   -0.08250    0.66111  )
        9     H    1.0079   tau(    9) = (    0.15197   -0.08774    1.71962  )
       10     H    1.0079   tau(   10) = (    0.00000    0.17548    1.71962  )
       11     H    1.0079   tau(   11) = (   -0.15197   -0.08774    1.71962  )
       12     H    1.0079   tau(   12) = (    0.15197    0.08774    1.10336  )
       13     H    1.0079   tau(   13) = (    0.00000   -0.17548    1.10336  )
       14     H    1.0079   tau(   14) = (   -0.15197    0.08774    1.10336  )
       15     H    1.0079   tau(   15) = (    0.00000   -0.00000    2.28006  )
       16     H    1.0079   tau(   16) = (    0.00000   -0.00000    0.54292  )
       17     H    1.0079   tau(   17) = (    0.00000   -0.00000    1.94521  )
       18     H    1.0079   tau(   18) = (    0.00000   -0.00000    0.87777  )
       19     H    1.0079   tau(   19) = (    0.00000   -0.00000    2.47584  )
       20     H    1.0079   tau(   20) = (    0.00000   -0.00000    0.34714  )
       21     H    1.0079   tau(   21) = (    0.00000   -0.00000    1.06124  )
       22     H    1.0079   tau(   22) = (    0.00000   -0.00000    1.76174  )

     Computing dynamical matrix for 
                    q = (   0.0000000   0.0000000   0.1328383 )
 
      6 Sym.Ops. (no q -> -q+G )


     G cutoff =  981.7709  (   1808 G-vectors)     FFT grid: ( 64, 64, 64)
     number of k points=   728

     PseudoPot. # 1 for La read from file:
     ./La.UPF
     MD5 check sum: 8e5991bce12d7f16f732aa20d6589152
     Pseudo is Norm-conserving, Zval = 11.0
     Generated in analytical, separable form
     Using radial grid of 1253 points,  7 beta functions with: 
                l(1) =   0
                l(2) =   0
                l(3) =   1
                l(4) =   1
                l(5) =   1
                l(6) =   2
                l(7) =   3

     PseudoPot. # 2 for H  read from file:
     ./H.UPF
     MD5 check sum: df8e43189db5a2d7f03d0dd74d71ce72
     Pseudo is Norm-conserving, Zval =  1.0
     Generated in analytical, separable form
     Using radial grid of  929 points,  0 beta functions with: 

     PseudoPot. # 3 for Y  read from file:
     ./Y.UPF
     MD5 check sum: 28b92b02874aa0fef5f1b1d2b706803c
     Pseudo is Norm-conserving, Zval =  3.0
     Generated in analytical, separable form
     Using radial grid of 1223 points,  7 beta functions with: 
                l(1) =   0
                l(2) =   0
                l(3) =   0
                l(4) =   1
                l(5) =   1
                l(6) =   2
                l(7) =   2

     Mode symmetry, C_3v (3m)   point group:


     Atomic displacements:
     There are   44 irreducible representations

     Representation     1      1 modes -  To be done

     Representation     2      1 modes -  To be done

     Representation     3      1 modes -  To be done

     Representation     4      1 modes -  To be done

     Representation     5      1 modes -  To be done

     Representation     6      1 modes -  To be done

     Representation     7      1 modes -  To be done

     Representation     8      1 modes -  To be done

     Representation     9      1 modes -  To be done

     Representation    10      1 modes -  To be done

     Representation    11      1 modes -  To be done

     Representation    12      1 modes -  To be done

     Representation    13      1 modes -  To be done

     Representation    14      1 modes -  To be done

     Representation    15      1 modes -  To be done

     Representation    16      1 modes -  To be done

     Representation    17      1 modes -  To be done

     Representation    18      1 modes -  To be done

     Representation    19      1 modes -  To be done

     Representation    20      1 modes -  To be done

     Representation    21      1 modes -  To be done

     Representation    22      1 modes -  To be done

     Representation    23      2 modes -  To be done

     Representation    24      2 modes -  To be done

     Representation    25      2 modes -  To be done

     Representation    26      2 modes -  To be done

     Representation    27      2 modes -  To be done

     Representation    28      2 modes -  To be done

     Representation    29      2 modes -  To be done

     Representation    30      2 modes -  To be done

     Representation    31      2 modes -  To be done

     Representation    32      2 modes -  To be done

     Representation    33      2 modes -  To be done

     Representation    34      2 modes -  To be done

     Representation    35      2 modes -  To be done

     Representation    36      2 modes -  To be done

     Representation    37      2 modes -  To be done

     Representation    38      2 modes -  To be done

     Representation    39      2 modes -  To be done

     Representation    40      2 modes -  To be done

     Representation    41      2 modes -  To be done

     Representation    42      2 modes -  To be done

     Representation    43      2 modes -  To be done

     Representation    44      2 modes -  To be done


     PHONON       :   3m38.23s CPU   4m 3.59s WALL

     Reading dVscf from file dv
     Reading dynamics matrix from file LaYH20.dyn1

     Diagonalizing the dynamical matrix

     q = (    0.000000000   0.000000000   0.132838276 ) 

 **************************************************************************
     freq (    1) =    -109.647514 [THz] =   -3657.447379 [cm-1]
     freq (    2) =    -109.647514 [THz] =   -3657.447374 [cm-1]
     freq (    3) =     -96.471739 [THz] =   -3217.950842 [cm-1]
     freq (    4) =     -96.471739 [THz] =   -3217.950835 [cm-1]
     freq (    5) =     -89.026607 [THz] =   -2969.607969 [cm-1]
     freq (    6) =     -89.026607 [THz] =   -2969.607961 [cm-1]
     freq (    7) =     -85.697280 [THz] =   -2858.553573 [cm-1]
     freq (    8) =     -85.697279 [THz] =   -2858.553547 [cm-1]
     freq (    9) =     -81.416391 [THz] =   -2715.758470 [cm-1]
     freq (   10) =     -81.416390 [THz] =   -2715.758444 [cm-1]
     freq (   11) =     -61.016193 [THz] =   -2035.281131 [cm-1]
     freq (   12) =     -61.016193 [THz] =   -2035.281127 [cm-1]
     freq (   13) =     -52.086686 [THz] =   -1737.424818 [cm-1]
     freq (   14) =     -52.086685 [THz] =   -1737.424789 [cm-1]
     freq (   15) =     -49.298956 [THz] =   -1644.436162 [cm-1]
     freq (   16) =     -49.298956 [THz] =   -1644.436154 [cm-1]
     freq (   17) =     -40.715187 [THz] =   -1358.112465 [cm-1]
     freq (   18) =     -40.472584 [THz] =   -1350.020100 [cm-1]
     freq (   19) =     -40.472584 [THz] =   -1350.020080 [cm-1]
     freq (   20) =     -39.737356 [THz] =   -1325.495518 [cm-1]
     freq (   21) =     -39.737355 [THz] =   -1325.495496 [cm-1]
     freq (   22) =     -38.965570 [THz] =   -1299.751501 [cm-1]
     freq (   23) =     -25.940688 [THz] =    -865.288200 [cm-1]
     freq (   24) =     -25.940686 [THz] =    -865.288136 [cm-1]
     freq (   25) =     -19.870176 [THz] =    -662.797726 [cm-1]
     freq (   26) =     -19.870171 [THz] =    -662.797558 [cm-1]
     freq (   27) =      -5.536506 [THz] =    -184.677951 [cm-1]
     freq (   28) =       2.838941 [THz] =      94.696892 [cm-1]
     freq (   29) =       2.838941 [THz] =      94.696894 [cm-1]
     freq (   30) =       4.942666 [THz] =     164.869591 [cm-1]
     freq (   31) =      13.453962 [THz] =     448.775869 [cm-1]
     freq (   32) =      13.453962 [THz] =     448.775874 [cm-1]
     freq (   33) =      17.429249 [THz] =     581.377175 [cm-1]
     freq (   34) =      17.429251 [THz] =     581.377245 [cm-1]
     freq (   35) =      20.708677 [THz] =     690.767097 [cm-1]
     freq (   36) =      21.682425 [THz] =     723.247841 [cm-1]
     freq (   37) =      21.682426 [THz] =     723.247896 [cm-1]
     freq (   38) =      22.261891 [THz] =     742.576767 [cm-1]
     freq (   39) =      25.467114 [THz] =     849.491486 [cm-1]
     freq (   40) =      25.944038 [THz] =     865.399961 [cm-1]
     freq (   41) =      25.944039 [THz] =     865.399981 [cm-1]
     freq (   42) =      27.628782 [THz] =     921.596955 [cm-1]
     freq (   43) =      28.598987 [THz] =     953.959526 [cm-1]
     freq (   44) =      28.922537 [THz] =     964.751987 [cm-1]
     freq (   45) =      31.083322 [THz] =    1036.828006 [cm-1]
     freq (   46) =      31.083323 [THz] =    1036.828036 [cm-1]
     freq (   47) =      32.012709 [THz] =    1067.829016 [cm-1]
     freq (   48) =      32.012712 [THz] =    1067.829130 [cm-1]
     freq (   49) =      32.496938 [THz] =    1083.981173 [cm-1]
     freq (   50) =      32.496939 [THz] =    1083.981216 [cm-1]
     freq (   51) =      33.421588 [THz] =    1114.824176 [cm-1]
     freq (   52) =      33.968454 [THz] =    1133.065649 [cm-1]
     freq (   53) =      35.959805 [THz] =    1199.489985 [cm-1]
     freq (   54) =      36.688994 [THz] =    1223.813125 [cm-1]
     freq (   55) =      36.688997 [THz] =    1223.813221 [cm-1]
     freq (   56) =      37.905479 [THz] =    1264.390696 [cm-1]
     freq (   57) =      37.905482 [THz] =    1264.390778 [cm-1]
     freq (   58) =      41.813816 [THz] =    1394.758769 [cm-1]
     freq (   59) =      44.266411 [THz] =    1476.568526 [cm-1]
     freq (   60) =      47.123168 [THz] =    1571.859702 [cm-1]
     freq (   61) =      53.753468 [THz] =    1793.022702 [cm-1]
     freq (   62) =      56.198486 [THz] =    1874.579711 [cm-1]
     freq (   63) =      58.327543 [THz] =    1945.597423 [cm-1]
     freq (   64) =      59.401795 [THz] =    1981.430596 [cm-1]
     freq (   65) =      62.722278 [THz] =    2092.190000 [cm-1]
     freq (   66) =      71.261639 [THz] =    2377.032421 [cm-1]
 **************************************************************************

     [elph_tetra]   Lowest band which contains FS :         15
     [elph_tetra]  Highest band which contains FS :         20
     [elph_tetra]    # of bands which contains FS :          6
 
     Tetrahedron method
     DOS = 10.579650 states/spin/Ry/Unit Cell at Ef= 17.192547 eV
     double delta at Ef =239.580774
     lambda(    1)=  0.0000   gamma=    0.00 GHz
     lambda(    2)=  0.0000   gamma=    0.00 GHz
     lambda(    3)=  0.0000   gamma=    0.00 GHz
     lambda(    4)=  0.0000   gamma=    0.00 GHz
     lambda(    5)=  0.0000   gamma=    0.00 GHz
     lambda(    6)=  0.0000   gamma=    0.00 GHz
     lambda(    7)=  0.0000   gamma=    0.00 GHz
     lambda(    8)=  0.0000   gamma=    0.00 GHz
     lambda(    9)=  0.0000   gamma=    0.00 GHz
     lambda(   10)=  0.0000   gamma=    0.00 GHz
     lambda(   11)=  0.0000   gamma=    0.00 GHz
     lambda(   12)=  0.0000   gamma=    0.00 GHz
     lambda(   13)=  0.0000   gamma=    0.00 GHz
     lambda(   14)=  0.0000   gamma=    0.00 GHz
     lambda(   15)=  0.0000   gamma=    0.00 GHz
     lambda(   16)=  0.0000   gamma=    0.00 GHz
     lambda(   17)=  0.0000   gamma=    0.00 GHz
     lambda(   18)=  0.0000   gamma=    0.00 GHz
     lambda(   19)=  0.0000   gamma=    0.00 GHz
     lambda(   20)=  0.0000   gamma=    0.00 GHz
     lambda(   21)=  0.0000   gamma=    0.00 GHz
     lambda(   22)=  0.0000   gamma=    0.00 GHz
     lambda(   23)=  0.0000   gamma=    0.00 GHz
     lambda(   24)=  0.0000   gamma=    0.00 GHz
     lambda(   25)=  0.0000   gamma=    0.00 GHz
     lambda(   26)=  0.0000   gamma=    0.00 GHz
     lambda(   27)=  0.0000   gamma=    0.00 GHz
     lambda(   28)=  0.0937   gamma=    7.63 GHz
     lambda(   29)=  0.0937   gamma=    7.63 GHz
     lambda(   30)=  0.0539   gamma=   13.31 GHz
     lambda(   31)=  0.0043   gamma=    7.91 GHz
     lambda(   32)=  0.0043   gamma=    7.91 GHz
     lambda(   33)=  0.0328   gamma=  100.80 GHz
     lambda(   34)=  0.0328   gamma=  100.80 GHz
     lambda(   35)=  0.0794   gamma=  344.01 GHz
     lambda(   36)=  0.0353   gamma=  167.82 GHz
     lambda(   37)=  0.0353   gamma=  167.82 GHz
     lambda(   38)=  0.0328   gamma=  164.18 GHz
     lambda(   39)=  0.0373   gamma=  244.16 GHz
     lambda(   40)=  0.0337   gamma=  229.26 GHz
     lambda(   41)=  0.0337   gamma=  229.26 GHz
     lambda(   42)=  0.0597   gamma=  460.09 GHz
     lambda(   43)=  0.0603   gamma=  498.13 GHz
     lambda(   44)=  0.0220   gamma=  185.63 GHz
     lambda(   45)=  0.0094   gamma=   92.19 GHz
     lambda(   46)=  0.0094   gamma=   92.19 GHz
     lambda(   47)=  0.0054   gamma=   56.19 GHz
     lambda(   48)=  0.0054   gamma=   56.19 GHz
     lambda(   49)=  0.0079   gamma=   84.13 GHz
     lambda(   50)=  0.0079   gamma=   84.14 GHz
     lambda(   51)=  0.0085   gamma=   96.02 GHz
     lambda(   52)=  0.0352   gamma=  409.76 GHz
     lambda(   53)=  0.0318   gamma=  414.96 GHz
     lambda(   54)=  0.0190   gamma=  258.06 GHz
     lambda(   55)=  0.0190   gamma=  258.06 GHz
     lambda(   56)=  0.0054   gamma=   78.92 GHz
     lambda(   57)=  0.0054   gamma=   78.92 GHz
     lambda(   58)=  0.0158   gamma=  278.50 GHz
     lambda(   59)=  0.0161   gamma=  319.72 GHz
     lambda(   60)=  0.0133   gamma=  297.71 GHz
     lambda(   61)=  0.0131   gamma=  381.89 GHz
     lambda(   62)=  0.0141   gamma=  450.70 GHz
     lambda(   63)=  0.0082   gamma=  280.70 GHz
     lambda(   64)=  0.0062   gamma=  220.16 GHz
     lambda(   65)=  0.0064   gamma=  254.79 GHz
     lambda(   66)=  0.0213   gamma= 1095.33 GHz
 
     Number of q in the star =    2
     List of q in the star:
          1   0.000000000   0.000000000   0.132838276
          2   0.000000000   0.000000000  -0.132838276

     Calculation of q =   -0.4264996  -0.2462397   0.2213971
     [opt_tetra]  Optimized tetrahedron method is used.
 
     Parallelization info
     --------------------
     sticks:   dense  smooth     PW     G-vecs:    dense   smooth      PW
     Min          86      86     28                 1805     1805     340
     Max          87      87     29                 1808     1808     342
     Sum        1729    1729    569                36119    36119    6831
 
     Using Slab Decomposition
 

     Title: 
      Electron-phonon for LaYH20                                                


     bravais-lattice index     =            5
     lattice parameter (alat)  =      11.0055  a.u.
     unit-cell volume          =     373.2416 (a.u.)^3
     number of atoms/cell      =           22
     number of atomic types    =            3
     number of electrons       =        34.00
     number of Kohn-Sham states=           21
     kinetic-energy cutoff     =      80.0000  Ry
     charge density cutoff     =     320.0000  Ry
     Exchange-correlation= PZ
                           (   1   1   0   0   0   0   0)

     celldm(1)=  11.005504  celldm(2)=   0.000000  celldm(3)=   0.000000
     celldm(4)=   0.828204  celldm(5)=   0.000000  celldm(6)=   0.000000

     crystal axes: (cart. coord. in units of alat)
               a(1) = (   0.293084  -0.169212   0.940994 )  
               a(2) = (   0.000000   0.338424   0.940994 )  
               a(3) = (  -0.293084  -0.169212   0.940994 )  

     reciprocal axes: (cart. coord. in units 2 pi/alat)
               b(1) = (  1.705998 -0.984959  0.354235 )  
               b(2) = (  0.000000  1.969917  0.354235 )  
               b(3) = ( -1.705998 -0.984959  0.354235 )  


     PseudoPot. # 1 for La read from file:
     ./La.UPF
     MD5 check sum: 8e5991bce12d7f16f732aa20d6589152
     Pseudo is Norm-conserving, Zval = 11.0
     Generated in analytical, separable form
     Using radial grid of 1253 points,  7 beta functions with: 
                l(1) =   0
                l(2) =   0
                l(3) =   1
                l(4) =   1
                l(5) =   1
                l(6) =   2
                l(7) =   3

     PseudoPot. # 2 for H  read from file:
     ./H.UPF
     MD5 check sum: df8e43189db5a2d7f03d0dd74d71ce72
     Pseudo is Norm-conserving, Zval =  1.0
     Generated in analytical, separable form
     Using radial grid of  929 points,  0 beta functions with: 

     PseudoPot. # 3 for Y  read from file:
     ./Y.UPF
     MD5 check sum: 28b92b02874aa0fef5f1b1d2b706803c
     Pseudo is Norm-conserving, Zval =  3.0
     Generated in analytical, separable form
     Using radial grid of 1223 points,  7 beta functions with: 
                l(1) =   0
                l(2) =   0
                l(3) =   0
                l(4) =   1
                l(5) =   1
                l(6) =   2
                l(7) =   2

     atomic species   valence    mass     pseudopotential
        La            11.00   138.90547     La( 1.00)
        H              1.00     1.00794     H ( 1.00)
        Y              3.00    88.90585     Y ( 1.00)

     12 Sym. Ops., with inversion, found



   Cartesian axes

     site n.     atom                  positions (alat units)
         1           La  tau(   1) = (   0.0000000  -0.0000000   1.4114908  )
         2           Y   tau(   2) = (   0.0000000   0.0000000   0.0000000  )
         3           H   tau(   3) = (  -0.1428933   0.0824995   2.1618675  )
         4           H   tau(   4) = (   0.0000000  -0.1649990   2.1618675  )
         5           H   tau(   5) = (   0.1428933   0.0824995   2.1618675  )
         6           H   tau(   6) = (  -0.1428933  -0.0824995   0.6611140  )
         7           H   tau(   7) = (   0.0000000   0.1649990   0.6611140  )
         8           H   tau(   8) = (   0.1428933  -0.0824995   0.6611140  )
         9           H   tau(   9) = (   0.1519727  -0.0877415   1.7196220  )
        10           H   tau(  10) = (   0.0000000   0.1754830   1.7196220  )
        11           H   tau(  11) = (  -0.1519727  -0.0877415   1.7196220  )
        12           H   tau(  12) = (   0.1519727   0.0877415   1.1033595  )
        13           H   tau(  13) = (   0.0000000  -0.1754830   1.1033595  )
        14           H   tau(  14) = (  -0.1519727   0.0877415   1.1033595  )
        15           H   tau(  15) = (   0.0000000  -0.0000000   2.2800590  )
        16           H   tau(  16) = (   0.0000000  -0.0000000   0.5429225  )
        17           H   tau(  17) = (   0.0000000  -0.0000000   1.9452070  )
        18           H   tau(  18) = (   0.0000000  -0.0000000   0.8777746  )
        19           H   tau(  19) = (   0.0000000  -0.0000000   2.4758411  )
        20           H   tau(  20) = (   0.0000000  -0.0000000   0.3471405  )
        21           H   tau(  21) = (   0.0000000  -0.0000000   1.0612419  )
        22           H   tau(  22) = (   0.0000000  -0.0000000   1.7617396  )

     number of k points=  1872 (tetrahedron method)

     Number of k-points >= 100: set verbosity='high' to print them.

     Dense  grid:    36119 G-vectors     FFT dimensions: (  64,  64,  64)

     Estimated max dynamical RAM per process >      10.73 MB

     Estimated total dynamical RAM >     214.62 MB

     The potential is recalculated from file :
     ./_ph0/LaYH20.q_2/LaYH20.save/charge-density

     Starting wfcs are   20 atomic +    1 random wfcs

     Band Structure Calculation
     Davidson diagonalization with overlap
     c_bands:  1 eigenvalues not converged
     c_bands:  1 eigenvalues not converged
     c_bands:  1 eigenvalues not converged
     c_bands:  1 eigenvalues not converged
     c_bands:  1 eigenvalues not converged
     c_bands:  1 eigenvalues not converged
     c_bands:  1 eigenvalues not converged
     c_bands:  1 eigenvalues not converged
     c_bands:  1 eigenvalues not converged
     c_bands:  1 eigenvalues not converged
     c_bands:  1 eigenvalues not converged
     c_bands:  1 eigenvalues not converged
     c_bands:  1 eigenvalues not converged
     c_bands:  1 eigenvalues not converged
     c_bands:  1 eigenvalues not converged
     c_bands:  1 eigenvalues not converged
     c_bands:  1 eigenvalues not converged
     c_bands:  1 eigenvalues not converged
     c_bands:  1 eigenvalues not converged
     c_bands:  1 eigenvalues not converged
     c_bands:  1 eigenvalues not converged
     c_bands:  1 eigenvalues not converged
     c_bands:  1 eigenvalues not converged
     c_bands:  1 eigenvalues not converged
     c_bands:  1 eigenvalues not converged
     c_bands:  1 eigenvalues not converged
     c_bands:  1 eigenvalues not converged

     ethr =  2.94E-11,  avg # of iterations = 50.8

     total cpu time spent up to now is      870.8 secs

     End of band structure calculation

     Number of k-points >= 100: set verbosity='high' to print the bands.

     the Fermi energy is    17.1925 ev

     Writing config to output data dir ./_ph0/LaYH20.q_2/LaYH20.save/
 
     [dfpt_tetra]  Dos(E_F)[/Ry] :   0.2115930E+02

      Electron-phonon for LaYH20                                                

     bravais-lattice index     =            5
     lattice parameter (alat)  =      11.0055  a.u.
     unit-cell volume          =     373.2416 (a.u.)^3
     number of atoms/cell      =           22
     number of atomic types    =            3
     kinetic-energy cut-off    =      80.0000  Ry
     charge density cut-off    =     320.0000  Ry
     convergence threshold     =      1.0E-08
     beta                      =       0.7000
     number of iterations used =            4
     Exchange-correlation= PZ
                           (   1   1   0   0   0   0   0)


     celldm(1)=   11.00550  celldm(2)=    0.00000  celldm(3)=    0.00000
     celldm(4)=    0.82820  celldm(5)=    0.00000  celldm(6)=    0.00000

     crystal axes: (cart. coord. in units of alat)
               a(1) = (  0.2931 -0.1692  0.9410 )  
               a(2) = (  0.0000  0.3384  0.9410 )  
               a(3) = ( -0.2931 -0.1692  0.9410 )  

     reciprocal axes: (cart. coord. in units 2 pi/alat)
               b(1) = (  1.7060 -0.9850  0.3542 )  
               b(2) = (  0.0000  1.9699  0.3542 )  
               b(3) = ( -1.7060 -0.9850  0.3542 )  


     Atoms inside the unit cell: 

     Cartesian axes

     site n.  atom      mass           positions (alat units)
        1     La 138.9055   tau(    1) = (    0.00000   -0.00000    1.41149  )
        2     Y   88.9059   tau(    2) = (    0.00000    0.00000    0.00000  )
        3     H    1.0079   tau(    3) = (   -0.14289    0.08250    2.16187  )
        4     H    1.0079   tau(    4) = (    0.00000   -0.16500    2.16187  )
        5     H    1.0079   tau(    5) = (    0.14289    0.08250    2.16187  )
        6     H    1.0079   tau(    6) = (   -0.14289   -0.08250    0.66111  )
        7     H    1.0079   tau(    7) = (    0.00000    0.16500    0.66111  )
        8     H    1.0079   tau(    8) = (    0.14289   -0.08250    0.66111  )
        9     H    1.0079   tau(    9) = (    0.15197   -0.08774    1.71962  )
       10     H    1.0079   tau(   10) = (    0.00000    0.17548    1.71962  )
       11     H    1.0079   tau(   11) = (   -0.15197   -0.08774    1.71962  )
       12     H    1.0079   tau(   12) = (    0.15197    0.08774    1.10336  )
       13     H    1.0079   tau(   13) = (    0.00000   -0.17548    1.10336  )
       14     H    1.0079   tau(   14) = (   -0.15197    0.08774    1.10336  )
       15     H    1.0079   tau(   15) = (    0.00000   -0.00000    2.28006  )
       16     H    1.0079   tau(   16) = (    0.00000   -0.00000    0.54292  )
       17     H    1.0079   tau(   17) = (    0.00000   -0.00000    1.94521  )
       18     H    1.0079   tau(   18) = (    0.00000   -0.00000    0.87777  )
       19     H    1.0079   tau(   19) = (    0.00000   -0.00000    2.47584  )
       20     H    1.0079   tau(   20) = (    0.00000   -0.00000    0.34714  )
       21     H    1.0079   tau(   21) = (    0.00000   -0.00000    1.06124  )
       22     H    1.0079   tau(   22) = (    0.00000   -0.00000    1.76174  )

     Computing dynamical matrix for 
                    q = (  -0.4264996  -0.2462397   0.2213971 )
 
      2 Sym.Ops. (no q -> -q+G )


     G cutoff =  981.7709  (   1808 G-vectors)     FFT grid: ( 64, 64, 64)
     number of k points=  1872

     PseudoPot. # 1 for La read from file:
     ./La.UPF
     MD5 check sum: 8e5991bce12d7f16f732aa20d6589152
     Pseudo is Norm-conserving, Zval = 11.0
     Generated in analytical, separable form
     Using radial grid of 1253 points,  7 beta functions with: 
                l(1) =   0
                l(2) =   0
                l(3) =   1
                l(4) =   1
                l(5) =   1
                l(6) =   2
                l(7) =   3

     PseudoPot. # 2 for H  read from file:
     ./H.UPF
     MD5 check sum: df8e43189db5a2d7f03d0dd74d71ce72
     Pseudo is Norm-conserving, Zval =  1.0
     Generated in analytical, separable form
     Using radial grid of  929 points,  0 beta functions with: 

     PseudoPot. # 3 for Y  read from file:
     ./Y.UPF
     MD5 check sum: 28b92b02874aa0fef5f1b1d2b706803c
     Pseudo is Norm-conserving, Zval =  3.0
     Generated in analytical, separable form
     Using radial grid of 1223 points,  7 beta functions with: 
                l(1) =   0
                l(2) =   0
                l(3) =   0
                l(4) =   1
                l(5) =   1
                l(6) =   2
                l(7) =   2

     Mode symmetry, C_s (m)     point group:


     Atomic displacements:
     There are   66 irreducible representations

     Representation     1      1 modes -  To be done

     Representation     2      1 modes -  To be done

     Representation     3      1 modes -  To be done

     Representation     4      1 modes -  To be done

     Representation     5      1 modes -  To be done

     Representation     6      1 modes -  To be done

     Representation     7      1 modes -  To be done

     Representation     8      1 modes -  To be done

     Representation     9      1 modes -  To be done

     Representation    10      1 modes -  To be done

     Representation    11      1 modes -  To be done

     Representation    12      1 modes -  To be done

     Representation    13      1 modes -  To be done

     Representation    14      1 modes -  To be done

     Representation    15      1 modes -  To be done

     Representation    16      1 modes -  To be done

     Representation    17      1 modes -  To be done

     Representation    18      1 modes -  To be done

     Representation    19      1 modes -  To be done

     Representation    20      1 modes -  To be done

     Representation    21      1 modes -  To be done

     Representation    22      1 modes -  To be done

     Representation    23      1 modes -  To be done

     Representation    24      1 modes -  To be done

     Representation    25      1 modes -  To be done

     Representation    26      1 modes -  To be done

     Representation    27      1 modes -  To be done

     Representation    28      1 modes -  To be done

     Representation    29      1 modes -  To be done

     Representation    30      1 modes -  To be done

     Representation    31      1 modes -  To be done

     Representation    32      1 modes -  To be done

     Representation    33      1 modes -  To be done

     Representation    34      1 modes -  To be done

     Representation    35      1 modes -  To be done

     Representation    36      1 modes -  To be done

     Representation    37      1 modes -  To be done

     Representation    38      1 modes -  To be done

     Representation    39      1 modes -  To be done

     Representation    40      1 modes -  To be done

     Representation    41      1 modes -  To be done

     Representation    42      1 modes -  To be done

     Representation    43      1 modes -  To be done

     Representation    44      1 modes -  To be done

     Representation    45      1 modes -  To be done

     Representation    46      1 modes -  To be done

     Representation    47      1 modes -  To be done

     Representation    48      1 modes -  To be done

     Representation    49      1 modes -  To be done

     Representation    50      1 modes -  To be done

     Representation    51      1 modes -  To be done

     Representation    52      1 modes -  To be done

     Representation    53      1 modes -  To be done

     Representation    54      1 modes -  To be done

     Representation    55      1 modes -  To be done

     Representation    56      1 modes -  To be done

     Representation    57      1 modes -  To be done

     Representation    58      1 modes -  To be done

     Representation    59      1 modes -  To be done

     Representation    60      1 modes -  To be done

     Representation    61      1 modes -  To be done

     Representation    62      1 modes -  To be done

     Representation    63      1 modes -  To be done

     Representation    64      1 modes -  To be done

     Representation    65      1 modes -  To be done

     Representation    66      1 modes -  To be done


     PHONON       :  17m29.89s CPU  18m31.52s WALL

     Reading dVscf from file dv
     Reading dynamics matrix from file LaYH20.dyn2

     Diagonalizing the dynamical matrix

     q = (   -0.426499607  -0.246239663   0.221397127 ) 

 **************************************************************************
     freq (    1) =     -85.254766 [THz] =   -2843.792892 [cm-1]
     freq (    2) =     -69.645233 [THz] =   -2323.114913 [cm-1]
     freq (    3) =     -62.237623 [THz] =   -2076.023649 [cm-1]
     freq (    4) =     -57.445011 [THz] =   -1916.159321 [cm-1]
     freq (    5) =     -53.259123 [THz] =   -1776.533119 [cm-1]
     freq (    6) =     -47.709979 [THz] =   -1591.433598 [cm-1]
     freq (    7) =     -43.112832 [THz] =   -1438.089273 [cm-1]
     freq (    8) =     -34.120489 [THz] =   -1138.137020 [cm-1]
     freq (    9) =     -30.701442 [THz] =   -1024.089862 [cm-1]
     freq (   10) =     -27.286029 [THz] =    -910.163957 [cm-1]
     freq (   11) =     -24.840962 [THz] =    -828.605311 [cm-1]
     freq (   12) =     -18.887735 [THz] =    -630.027034 [cm-1]
     freq (   13) =     -13.455391 [THz] =    -448.823530 [cm-1]
     freq (   14) =      -7.215810 [THz] =    -240.693513 [cm-1]
     freq (   15) =      -3.956740 [THz] =    -131.982626 [cm-1]
     freq (   16) =      -2.138615 [THz] =     -71.336503 [cm-1]
     freq (   17) =       1.494445 [THz] =      49.849325 [cm-1]
     freq (   18) =       2.028846 [THz] =      67.675002 [cm-1]
     freq (   19) =       4.339136 [THz] =     144.738007 [cm-1]
     freq (   20) =       4.479976 [THz] =     149.435908 [cm-1]
     freq (   21) =       9.304199 [THz] =     310.354662 [cm-1]
     freq (   22) =      14.440603 [THz] =     481.686666 [cm-1]
     freq (   23) =      15.915313 [THz] =     530.877711 [cm-1]
     freq (   24) =      17.477280 [THz] =     582.979303 [cm-1]
     freq (   25) =      20.497856 [THz] =     683.734877 [cm-1]
     freq (   26) =      23.064826 [THz] =     769.359785 [cm-1]
     freq (   27) =      24.323750 [THz] =     811.352953 [cm-1]
     freq (   28) =      25.334029 [THz] =     845.052256 [cm-1]
     freq (   29) =      26.448746 [THz] =     882.235210 [cm-1]
     freq (   30) =      26.861114 [THz] =     895.990313 [cm-1]
     freq (   31) =      27.688597 [THz] =     923.592182 [cm-1]
     freq (   32) =      28.676330 [THz] =     956.539398 [cm-1]
     freq (   33) =      30.598643 [THz] =    1020.660880 [cm-1]
     freq (   34) =      32.124457 [THz] =    1071.556546 [cm-1]
     freq (   35) =      32.178064 [THz] =    1073.344675 [cm-1]
     freq (   36) =      32.728349 [THz] =    1091.700220 [cm-1]
     freq (   37) =      33.092249 [THz] =    1103.838597 [cm-1]
     freq (   38) =      33.943796 [THz] =    1132.243156 [cm-1]
     freq (   39) =      34.669418 [THz] =    1156.447295 [cm-1]
     freq (   40) =      35.518549 [THz] =    1184.771275 [cm-1]
     freq (   41) =      35.630035 [THz] =    1188.490053 [cm-1]
     freq (   42) =      37.099865 [THz] =    1237.518287 [cm-1]
     freq (   43) =      39.202198 [THz] =    1307.644577 [cm-1]
     freq (   44) =      39.571143 [THz] =    1319.951261 [cm-1]
     freq (   45) =      40.696921 [THz] =    1357.503169 [cm-1]
     freq (   46) =      42.120613 [THz] =    1404.992432 [cm-1]
     freq (   47) =      42.561448 [THz] =    1419.697092 [cm-1]
     freq (   48) =      43.723351 [THz] =    1458.453990 [cm-1]
     freq (   49) =      43.740835 [THz] =    1459.037194 [cm-1]
     freq (   50) =      44.981170 [THz] =    1500.410316 [cm-1]
     freq (   51) =      46.284941 [THz] =    1543.899446 [cm-1]
     freq (   52) =      47.188371 [THz] =    1574.034626 [cm-1]
     freq (   53) =      48.146532 [THz] =    1605.995442 [cm-1]
     freq (   54) =      49.455204 [THz] =    1649.648039 [cm-1]
     freq (   55) =      50.575166 [THz] =    1687.005958 [cm-1]
     freq (   56) =      50.757097 [THz] =    1693.074523 [cm-1]
     freq (   57) =      52.951256 [THz] =    1766.263765 [cm-1]
     freq (   58) =      55.421237 [THz] =    1848.653490 [cm-1]
     freq (   59) =      55.555153 [THz] =    1853.120436 [cm-1]
     freq (   60) =      57.387437 [THz] =    1914.238851 [cm-1]
     freq (   61) =      57.751131 [THz] =    1926.370377 [cm-1]
     freq (   62) =      58.630034 [THz] =    1955.687433 [cm-1]
     freq (   63) =      67.320676 [THz] =    2245.576053 [cm-1]
     freq (   64) =      71.334246 [THz] =    2379.454312 [cm-1]
     freq (   65) =      86.300390 [THz] =    2878.671156 [cm-1]
     freq (   66) =      98.419272 [THz] =    3282.913529 [cm-1]
 **************************************************************************

     [elph_tetra]   Lowest band which contains FS :         15
     [elph_tetra]  Highest band which contains FS :         20
     [elph_tetra]    # of bands which contains FS :          6
 
     Tetrahedron method
     DOS = 10.579650 states/spin/Ry/Unit Cell at Ef= 17.192547 eV
     double delta at Ef =214.765096
     lambda(    1)=  0.0000   gamma=    0.00 GHz
     lambda(    2)=  0.0000   gamma=    0.00 GHz
     lambda(    3)=  0.0000   gamma=    0.00 GHz
     lambda(    4)=  0.0000   gamma=    0.00 GHz
     lambda(    5)=  0.0000   gamma=    0.00 GHz
     lambda(    6)=  0.0000   gamma=    0.00 GHz
     lambda(    7)=  0.0000   gamma=    0.00 GHz
     lambda(    8)=  0.0000   gamma=    0.00 GHz
     lambda(    9)=  0.0000   gamma=    0.00 GHz
     lambda(   10)=  0.0000   gamma=    0.00 GHz
     lambda(   11)=  0.0000   gamma=    0.00 GHz
     lambda(   12)=  0.0000   gamma=    0.00 GHz
     lambda(   13)=  0.0000   gamma=    0.00 GHz
     lambda(   14)=  0.0000   gamma=    0.00 GHz
     lambda(   15)=  0.0000   gamma=    0.00 GHz
     lambda(   16)=  0.0000   gamma=    0.00 GHz
     lambda(   17)= 11.7925   gamma=  266.08 GHz
     lambda(   18)=  0.8127   gamma=   33.80 GHz
     lambda(   19)=  0.4315   gamma=   82.08 GHz
     lambda(   20)=  0.3523   gamma=   71.42 GHz
     lambda(   21)=  0.0965   gamma=   84.36 GHz
     lambda(   22)=  0.2140   gamma=  450.92 GHz
     lambda(   23)=  0.1722   gamma=  440.54 GHz
     lambda(   24)=  0.1515   gamma=  467.68 GHz
     lambda(   25)=  0.0734   gamma=  311.38 GHz
     lambda(   26)=  0.0591   gamma=  317.79 GHz
     lambda(   27)=  0.0653   gamma=  390.27 GHz
     lambda(   28)=  0.0147   gamma=   95.05 GHz
     lambda(   29)=  0.0332   gamma=  234.74 GHz
     lambda(   30)=  0.0152   gamma=  110.55 GHz
     lambda(   31)=  0.0732   gamma=  566.78 GHz
     lambda(   32)=  0.0525   gamma=  436.57 GHz
     lambda(   33)=  0.0424   gamma=  401.49 GHz
     lambda(   34)=  0.0443   gamma=  461.37 GHz
     lambda(   35)=  0.0432   gamma=  452.27 GHz
     lambda(   36)=  0.0179   gamma=  193.22 GHz
     lambda(   37)=  0.0307   gamma=  339.15 GHz
     lambda(   38)=  0.0520   gamma=  605.00 GHz
     lambda(   39)=  0.0170   gamma=  206.06 GHz
     lambda(   40)=  0.0118   gamma=  150.74 GHz
     lambda(   41)=  0.0385   gamma=  493.38 GHz
     lambda(   42)=  0.0252   gamma=  350.22 GHz
     lambda(   43)=  0.0260   gamma=  403.17 GHz
     lambda(   44)=  0.0401   gamma=  634.90 GHz
     lambda(   45)=  0.0139   gamma=  232.25 GHz
     lambda(   46)=  0.0201   gamma=  360.72 GHz
     lambda(   47)=  0.0370   gamma=  677.29 GHz
     lambda(   48)=  0.0289   gamma=  558.33 GHz
     lambda(   49)=  0.0123   gamma=  238.61 GHz
     lambda(   50)=  0.0256   gamma=  523.95 GHz
     lambda(   51)=  0.0103   gamma=  222.66 GHz
     lambda(   52)=  0.0216   gamma=  485.05 GHz
     lambda(   53)=  0.0101   gamma=  237.69 GHz
     lambda(   54)=  0.0205   gamma=  506.40 GHz
     lambda(   55)=  0.0074   gamma=  192.09 GHz
     lambda(   56)=  0.0227   gamma=  590.52 GHz
     lambda(   57)=  0.0146   gamma=  413.45 GHz
     lambda(   58)=  0.0073   gamma=  228.00 GHz
     lambda(   59)=  0.0134   gamma=  417.64 GHz
     lambda(   60)=  0.0172   gamma=  571.80 GHz
     lambda(   61)=  0.0109   gamma=  368.82 GHz
     lambda(   62)=  0.0066   gamma=  229.10 GHz
     lambda(   63)=  0.0099   gamma=  455.20 GHz
     lambda(   64)=  0.0058   gamma=  295.88 GHz
     lambda(   65)=  0.0036   gamma=  270.25 GHz
     lambda(   66)=  0.0029   gamma=  281.90 GHz
 
     Number of q in the star =    6
     List of q in the star:
          1  -0.426499607  -0.246239663   0.221397127
          2   0.000000000   0.492479326   0.221397127
          3   0.426499607  -0.246239663   0.221397127
          4   0.426499607   0.246239663  -0.221397127
          5  -0.426499607   0.246239663  -0.221397127
          6  -0.000000000  -0.492479326  -0.221397127

     Calculation of q =    0.8529992   0.4924793  -0.0442794
     [opt_tetra]  Optimized tetrahedron method is used.
 
     Parallelization info
     --------------------
     sticks:   dense  smooth     PW     G-vecs:    dense   smooth      PW
     Min          86      86     29                 1805     1805     367
     Max          87      87     30                 1808     1808     371
     Sum        1729    1729    597                36119    36119    7385
 
     Using Slab Decomposition
 

     Title: 
      Electron-phonon for LaYH20                                                


     bravais-lattice index     =            5
     lattice parameter (alat)  =      11.0055  a.u.
     unit-cell volume          =     373.2416 (a.u.)^3
     number of atoms/cell      =           22
     number of atomic types    =            3
     number of electrons       =        34.00
     number of Kohn-Sham states=           21
     kinetic-energy cutoff     =      80.0000  Ry
     charge density cutoff     =     320.0000  Ry
     Exchange-correlation= PZ
                           (   1   1   0   0   0   0   0)

     celldm(1)=  11.005504  celldm(2)=   0.000000  celldm(3)=   0.000000
     celldm(4)=   0.828204  celldm(5)=   0.000000  celldm(6)=   0.000000

     crystal axes: (cart. coord. in units of alat)
               a(1) = (   0.293084  -0.169212   0.940994 )  
               a(2) = (   0.000000   0.338424   0.940994 )  
               a(3) = (  -0.293084  -0.169212   0.940994 )  

     reciprocal axes: (cart. coord. in units 2 pi/alat)
               b(1) = (  1.705998 -0.984959  0.354235 )  
               b(2) = (  0.000000  1.969917  0.354235 )  
               b(3) = ( -1.705998 -0.984959  0.354235 )  


     PseudoPot. # 1 for La read from file:
     ./La.UPF
     MD5 check sum: 8e5991bce12d7f16f732aa20d6589152
     Pseudo is Norm-conserving, Zval = 11.0
     Generated in analytical, separable form
     Using radial grid of 1253 points,  7 beta functions with: 
                l(1) =   0
                l(2) =   0
                l(3) =   1
                l(4) =   1
                l(5) =   1
                l(6) =   2
                l(7) =   3

     PseudoPot. # 2 for H  read from file:
     ./H.UPF
     MD5 check sum: df8e43189db5a2d7f03d0dd74d71ce72
     Pseudo is Norm-conserving, Zval =  1.0
     Generated in analytical, separable form
     Using radial grid of  929 points,  0 beta functions with: 

     PseudoPot. # 3 for Y  read from file:
     ./Y.UPF
     MD5 check sum: 28b92b02874aa0fef5f1b1d2b706803c
     Pseudo is Norm-conserving, Zval =  3.0
     Generated in analytical, separable form
     Using radial grid of 1223 points,  7 beta functions with: 
                l(1) =   0
                l(2) =   0
                l(3) =   0
                l(4) =   1
                l(5) =   1
                l(6) =   2
                l(7) =   2

     atomic species   valence    mass     pseudopotential
        La            11.00   138.90547     La( 1.00)
        H              1.00     1.00794     H ( 1.00)
        Y              3.00    88.90585     Y ( 1.00)

     12 Sym. Ops., with inversion, found



   Cartesian axes

     site n.     atom                  positions (alat units)
         1           La  tau(   1) = (   0.0000000  -0.0000000   1.4114908  )
         2           Y   tau(   2) = (   0.0000000   0.0000000   0.0000000  )
         3           H   tau(   3) = (  -0.1428933   0.0824995   2.1618675  )
         4           H   tau(   4) = (   0.0000000  -0.1649990   2.1618675  )
         5           H   tau(   5) = (   0.1428933   0.0824995   2.1618675  )
         6           H   tau(   6) = (  -0.1428933  -0.0824995   0.6611140  )
         7           H   tau(   7) = (   0.0000000   0.1649990   0.6611140  )
         8           H   tau(   8) = (   0.1428933  -0.0824995   0.6611140  )
         9           H   tau(   9) = (   0.1519727  -0.0877415   1.7196220  )
        10           H   tau(  10) = (   0.0000000   0.1754830   1.7196220  )
        11           H   tau(  11) = (  -0.1519727  -0.0877415   1.7196220  )
        12           H   tau(  12) = (   0.1519727   0.0877415   1.1033595  )
        13           H   tau(  13) = (   0.0000000  -0.1754830   1.1033595  )
        14           H   tau(  14) = (  -0.1519727   0.0877415   1.1033595  )
        15           H   tau(  15) = (   0.0000000  -0.0000000   2.2800590  )
        16           H   tau(  16) = (   0.0000000  -0.0000000   0.5429225  )
        17           H   tau(  17) = (   0.0000000  -0.0000000   1.9452070  )
        18           H   tau(  18) = (   0.0000000  -0.0000000   0.8777746  )
        19           H   tau(  19) = (   0.0000000  -0.0000000   2.4758411  )
        20           H   tau(  20) = (   0.0000000  -0.0000000   0.3471405  )
        21           H   tau(  21) = (   0.0000000  -0.0000000   1.0612419  )
        22           H   tau(  22) = (   0.0000000  -0.0000000   1.7617396  )

     number of k points=  1872 (tetrahedron method)

     Number of k-points >= 100: set verbosity='high' to print them.

     Dense  grid:    36119 G-vectors     FFT dimensions: (  64,  64,  64)

     Estimated max dynamical RAM per process >      10.85 MB

     Estimated total dynamical RAM >     216.93 MB

     The potential is recalculated from file :
     ./_ph0/LaYH20.q_3/LaYH20.save/charge-density

     Starting wfcs are   20 atomic +    1 random wfcs

     Band Structure Calculation
     Davidson diagonalization with overlap
     c_bands:  1 eigenvalues not converged
     c_bands:  1 eigenvalues not converged
     c_bands:  1 eigenvalues not converged
     c_bands:  1 eigenvalues not converged
     c_bands:  1 eigenvalues not converged
     c_bands:  1 eigenvalues not converged
     c_bands:  1 eigenvalues not converged
     c_bands:  1 eigenvalues not converged
     c_bands:  1 eigenvalues not converged
     c_bands:  1 eigenvalues not converged
     c_bands:  1 eigenvalues not converged
     c_bands:  1 eigenvalues not converged
     c_bands:  1 eigenvalues not converged
     c_bands:  1 eigenvalues not converged
     c_bands:  1 eigenvalues not converged
     c_bands:  1 eigenvalues not converged
     c_bands:  1 eigenvalues not converged
     c_bands:  1 eigenvalues not converged
     c_bands:  1 eigenvalues not converged
     c_bands:  1 eigenvalues not converged
     c_bands:  1 eigenvalues not converged
     c_bands:  1 eigenvalues not converged
     c_bands:  1 eigenvalues not converged
     c_bands:  1 eigenvalues not converged
     c_bands:  1 eigenvalues not converged
     c_bands:  1 eigenvalues not converged
     c_bands:  1 eigenvalues not converged
     c_bands:  1 eigenvalues not converged
     c_bands:  1 eigenvalues not converged
     c_bands:  1 eigenvalues not converged
     c_bands:  1 eigenvalues not converged

     ethr =  2.94E-11,  avg # of iterations = 50.7

     total cpu time spent up to now is     1509.3 secs

     End of band structure calculation

     Number of k-points >= 100: set verbosity='high' to print the bands.

     the Fermi energy is    17.1925 ev

     Writing config to output data dir ./_ph0/LaYH20.q_3/LaYH20.save/
 
     [dfpt_tetra]  Dos(E_F)[/Ry] :   0.2115930E+02

      Electron-phonon for LaYH20                                                

     bravais-lattice index     =            5
     lattice parameter (alat)  =      11.0055  a.u.
     unit-cell volume          =     373.2416 (a.u.)^3
     number of atoms/cell      =           22
     number of atomic types    =            3
     kinetic-energy cut-off    =      80.0000  Ry
     charge density cut-off    =     320.0000  Ry
     convergence threshold     =      1.0E-08
     beta                      =       0.7000
     number of iterations used =            4
     Exchange-correlation= PZ
                           (   1   1   0   0   0   0   0)


     celldm(1)=   11.00550  celldm(2)=    0.00000  celldm(3)=    0.00000
     celldm(4)=    0.82820  celldm(5)=    0.00000  celldm(6)=    0.00000

     crystal axes: (cart. coord. in units of alat)
               a(1) = (  0.2931 -0.1692  0.9410 )  
               a(2) = (  0.0000  0.3384  0.9410 )  
               a(3) = ( -0.2931 -0.1692  0.9410 )  

     reciprocal axes: (cart. coord. in units 2 pi/alat)
               b(1) = (  1.7060 -0.9850  0.3542 )  
               b(2) = (  0.0000  1.9699  0.3542 )  
               b(3) = ( -1.7060 -0.9850  0.3542 )  


     Atoms inside the unit cell: 

     Cartesian axes

     site n.  atom      mass           positions (alat units)
        1     La 138.9055   tau(    1) = (    0.00000   -0.00000    1.41149  )
        2     Y   88.9059   tau(    2) = (    0.00000    0.00000    0.00000  )
        3     H    1.0079   tau(    3) = (   -0.14289    0.08250    2.16187  )
        4     H    1.0079   tau(    4) = (    0.00000   -0.16500    2.16187  )
        5     H    1.0079   tau(    5) = (    0.14289    0.08250    2.16187  )
        6     H    1.0079   tau(    6) = (   -0.14289   -0.08250    0.66111  )
        7     H    1.0079   tau(    7) = (    0.00000    0.16500    0.66111  )
        8     H    1.0079   tau(    8) = (    0.14289   -0.08250    0.66111  )
        9     H    1.0079   tau(    9) = (    0.15197   -0.08774    1.71962  )
       10     H    1.0079   tau(   10) = (    0.00000    0.17548    1.71962  )
       11     H    1.0079   tau(   11) = (   -0.15197   -0.08774    1.71962  )
       12     H    1.0079   tau(   12) = (    0.15197    0.08774    1.10336  )
       13     H    1.0079   tau(   13) = (    0.00000   -0.17548    1.10336  )
       14     H    1.0079   tau(   14) = (   -0.15197    0.08774    1.10336  )
       15     H    1.0079   tau(   15) = (    0.00000   -0.00000    2.28006  )
       16     H    1.0079   tau(   16) = (    0.00000   -0.00000    0.54292  )
       17     H    1.0079   tau(   17) = (    0.00000   -0.00000    1.94521  )
       18     H    1.0079   tau(   18) = (    0.00000   -0.00000    0.87777  )
       19     H    1.0079   tau(   19) = (    0.00000   -0.00000    2.47584  )
       20     H    1.0079   tau(   20) = (    0.00000   -0.00000    0.34714  )
       21     H    1.0079   tau(   21) = (    0.00000   -0.00000    1.06124  )
       22     H    1.0079   tau(   22) = (    0.00000   -0.00000    1.76174  )

     Computing dynamical matrix for 
                    q = (   0.8529992   0.4924793  -0.0442794 )
 
      2 Sym.Ops. (no q -> -q+G )


     G cutoff =  981.7709  (   1808 G-vectors)     FFT grid: ( 64, 64, 64)
     number of k points=  1872

     PseudoPot. # 1 for La read from file:
     ./La.UPF
     MD5 check sum: 8e5991bce12d7f16f732aa20d6589152
     Pseudo is Norm-conserving, Zval = 11.0
     Generated in analytical, separable form
     Using radial grid of 1253 points,  7 beta functions with: 
                l(1) =   0
                l(2) =   0
                l(3) =   1
                l(4) =   1
                l(5) =   1
                l(6) =   2
                l(7) =   3

     PseudoPot. # 2 for H  read from file:
     ./H.UPF
     MD5 check sum: df8e43189db5a2d7f03d0dd74d71ce72
     Pseudo is Norm-conserving, Zval =  1.0
     Generated in analytical, separable form
     Using radial grid of  929 points,  0 beta functions with: 

     PseudoPot. # 3 for Y  read from file:
     ./Y.UPF
     MD5 check sum: 28b92b02874aa0fef5f1b1d2b706803c
     Pseudo is Norm-conserving, Zval =  3.0
     Generated in analytical, separable form
     Using radial grid of 1223 points,  7 beta functions with: 
                l(1) =   0
                l(2) =   0
                l(3) =   0
                l(4) =   1
                l(5) =   1
                l(6) =   2
                l(7) =   2

     Mode symmetry, C_s (m)     point group:


     Atomic displacements:
     There are   66 irreducible representations

     Representation     1      1 modes -  To be done

     Representation     2      1 modes -  To be done

     Representation     3      1 modes -  To be done

     Representation     4      1 modes -  To be done

     Representation     5      1 modes -  To be done

     Representation     6      1 modes -  To be done

     Representation     7      1 modes -  To be done

     Representation     8      1 modes -  To be done

     Representation     9      1 modes -  To be done

     Representation    10      1 modes -  To be done

     Representation    11      1 modes -  To be done

     Representation    12      1 modes -  To be done

     Representation    13      1 modes -  To be done

     Representation    14      1 modes -  To be done

     Representation    15      1 modes -  To be done

     Representation    16      1 modes -  To be done

     Representation    17      1 modes -  To be done

     Representation    18      1 modes -  To be done

     Representation    19      1 modes -  To be done

     Representation    20      1 modes -  To be done

     Representation    21      1 modes -  To be done

     Representation    22      1 modes -  To be done

     Representation    23      1 modes -  To be done

     Representation    24      1 modes -  To be done

     Representation    25      1 modes -  To be done

     Representation    26      1 modes -  To be done

     Representation    27      1 modes -  To be done

     Representation    28      1 modes -  To be done

     Representation    29      1 modes -  To be done

     Representation    30      1 modes -  To be done

     Representation    31      1 modes -  To be done

     Representation    32      1 modes -  To be done

     Representation    33      1 modes -  To be done

     Representation    34      1 modes -  To be done

     Representation    35      1 modes -  To be done

     Representation    36      1 modes -  To be done

     Representation    37      1 modes -  To be done

     Representation    38      1 modes -  To be done

     Representation    39      1 modes -  To be done

     Representation    40      1 modes -  To be done

     Representation    41      1 modes -  To be done

     Representation    42      1 modes -  To be done

     Representation    43      1 modes -  To be done

     Representation    44      1 modes -  To be done

     Representation    45      1 modes -  To be done

     Representation    46      1 modes -  To be done

     Representation    47      1 modes -  To be done

     Representation    48      1 modes -  To be done

     Representation    49      1 modes -  To be done

     Representation    50      1 modes -  To be done

     Representation    51      1 modes -  To be done

     Representation    52      1 modes -  To be done

     Representation    53      1 modes -  To be done

     Representation    54      1 modes -  To be done

     Representation    55      1 modes -  To be done

     Representation    56      1 modes -  To be done

     Representation    57      1 modes -  To be done

     Representation    58      1 modes -  To be done

     Representation    59      1 modes -  To be done

     Representation    60      1 modes -  To be done

     Representation    61      1 modes -  To be done

     Representation    62      1 modes -  To be done

     Representation    63      1 modes -  To be done

     Representation    64      1 modes -  To be done

     Representation    65      1 modes -  To be done

     Representation    66      1 modes -  To be done


     PHONON       :  36m43.51s CPU  38m34.20s WALL

     Reading dVscf from file dv
     Reading dynamics matrix from file LaYH20.dyn3

     Diagonalizing the dynamical matrix

     q = (    0.852999215   0.492479326  -0.044279425 ) 

 **************************************************************************
     freq (    1) =     -59.962247 [THz] =   -2000.125264 [cm-1]
     freq (    2) =     -59.369882 [THz] =   -1980.366081 [cm-1]
     freq (    3) =     -53.919379 [THz] =   -1798.556871 [cm-1]
     freq (    4) =     -50.751899 [THz] =   -1692.901140 [cm-1]
     freq (    5) =     -50.169404 [THz] =   -1673.471178 [cm-1]
     freq (    6) =     -48.818714 [THz] =   -1628.417021 [cm-1]
     freq (    7) =     -38.143082 [THz] =   -1272.316253 [cm-1]
     freq (    8) =     -34.691336 [THz] =   -1157.178418 [cm-1]
     freq (    9) =     -30.985191 [THz] =   -1033.554725 [cm-1]
     freq (   10) =     -29.694942 [THz] =    -990.516656 [cm-1]
     freq (   11) =     -25.442625 [THz] =    -848.674604 [cm-1]
     freq (   12) =     -17.743885 [THz] =    -591.872285 [cm-1]
     freq (   13) =      -7.286186 [THz] =    -243.040989 [cm-1]
     freq (   14) =      -5.323225 [THz] =    -177.563658 [cm-1]
     freq (   15) =      -2.117360 [THz] =     -70.627538 [cm-1]
     freq (   16) =      -1.592337 [THz] =     -53.114652 [cm-1]
     freq (   17) =       4.142098 [THz] =     138.165503 [cm-1]
     freq (   18) =       5.576143 [THz] =     186.000104 [cm-1]
     freq (   19) =       8.632788 [THz] =     287.958806 [cm-1]
     freq (   20) =      10.528048 [THz] =     351.177865 [cm-1]
     freq (   21) =      11.654671 [THz] =     388.757964 [cm-1]
     freq (   22) =      16.273613 [THz] =     542.829291 [cm-1]
     freq (   23) =      18.416968 [THz] =     614.323923 [cm-1]
     freq (   24) =      18.807979 [THz] =     627.366644 [cm-1]
     freq (   25) =      22.509535 [THz] =     750.837275 [cm-1]
     freq (   26) =      23.083185 [THz] =     769.972161 [cm-1]
     freq (   27) =      23.752279 [THz] =     792.290732 [cm-1]
     freq (   28) =      25.776900 [THz] =     859.824848 [cm-1]
     freq (   29) =      26.373862 [THz] =     879.737351 [cm-1]
     freq (   30) =      26.384686 [THz] =     880.098391 [cm-1]
     freq (   31) =      27.501271 [THz] =     917.343672 [cm-1]
     freq (   32) =      29.935829 [THz] =     998.551780 [cm-1]
     freq (   33) =      31.211255 [THz] =    1041.095414 [cm-1]
     freq (   34) =      33.048386 [THz] =    1102.375489 [cm-1]
     freq (   35) =      33.532701 [THz] =    1118.530500 [cm-1]
     freq (   36) =      33.778997 [THz] =    1126.746057 [cm-1]
     freq (   37) =      34.607804 [THz] =    1154.392074 [cm-1]
     freq (   38) =      35.833032 [THz] =    1195.261300 [cm-1]
     freq (   39) =      36.392099 [THz] =    1213.909754 [cm-1]
     freq (   40) =      37.358920 [THz] =    1246.159443 [cm-1]
     freq (   41) =      39.807021 [THz] =    1327.819301 [cm-1]
     freq (   42) =      40.331425 [THz] =    1345.311523 [cm-1]
     freq (   43) =      40.814141 [THz] =    1361.413188 [cm-1]
     freq (   44) =      41.454751 [THz] =    1382.781655 [cm-1]
     freq (   45) =      41.564327 [THz] =    1386.436725 [cm-1]
     freq (   46) =      41.666839 [THz] =    1389.856153 [cm-1]
     freq (   47) =      43.647441 [THz] =    1455.921900 [cm-1]
     freq (   48) =      43.657585 [THz] =    1456.260290 [cm-1]
     freq (   49) =      45.014474 [THz] =    1501.521229 [cm-1]
     freq (   50) =      46.451960 [THz] =    1549.470607 [cm-1]
     freq (   51) =      47.916302 [THz] =    1598.315780 [cm-1]
     freq (   52) =      49.526308 [THz] =    1652.019806 [cm-1]
     freq (   53) =      50.242665 [THz] =    1675.914921 [cm-1]
     freq (   54) =      51.795156 [THz] =    1727.700432 [cm-1]
     freq (   55) =      53.028119 [THz] =    1768.827658 [cm-1]
     freq (   56) =      54.379016 [THz] =    1813.888728 [cm-1]
     freq (   57) =      54.446312 [THz] =    1816.133474 [cm-1]
     freq (   58) =      56.763405 [THz] =    1893.423367 [cm-1]
     freq (   59) =      59.123797 [THz] =    1972.157590 [cm-1]
     freq (   60) =      60.989904 [THz] =    2034.404201 [cm-1]
     freq (   61) =      64.196430 [THz] =    2141.362395 [cm-1]
     freq (   62) =      67.396855 [THz] =    2248.117105 [cm-1]
     freq (   63) =      69.318915 [THz] =    2312.230120 [cm-1]
     freq (   64) =      80.967912 [THz] =    2700.798836 [cm-1]
     freq (   65) =      93.783451 [THz] =    3128.279190 [cm-1]
     freq (   66) =     113.451486 [THz] =    3784.334240 [cm-1]
 **************************************************************************

     [elph_tetra]   Lowest band which contains FS :         15
     [elph_tetra]  Highest band which contains FS :         20
     [elph_tetra]    # of bands which contains FS :          6
 
     Tetrahedron method
     DOS = 10.579650 states/spin/Ry/Unit Cell at Ef= 17.192547 eV
     double delta at Ef =218.528918
     lambda(    1)=  0.0000   gamma=    0.00 GHz
     lambda(    2)=  0.0000   gamma=    0.00 GHz
     lambda(    3)=  0.0000   gamma=    0.00 GHz
     lambda(    4)=  0.0000   gamma=    0.00 GHz
     lambda(    5)=  0.0000   gamma=    0.00 GHz
     lambda(    6)=  0.0000   gamma=    0.00 GHz
     lambda(    7)=  0.0000   gamma=    0.00 GHz
     lambda(    8)=  0.0000   gamma=    0.00 GHz
     lambda(    9)=  0.0000   gamma=    0.00 GHz
     lambda(   10)=  0.0000   gamma=    0.00 GHz
     lambda(   11)=  0.0000   gamma=    0.00 GHz
     lambda(   12)=  0.0000   gamma=    0.00 GHz
     lambda(   13)=  0.0000   gamma=    0.00 GHz
     lambda(   14)=  0.0000   gamma=    0.00 GHz
     lambda(   15)=  0.0000   gamma=    0.00 GHz
     lambda(   16)=  0.0000   gamma=    0.00 GHz
     lambda(   17)=  0.0732   gamma=   12.68 GHz
     lambda(   18)=  0.1760   gamma=   55.29 GHz
     lambda(   19)=  0.4448   gamma=  334.89 GHz
     lambda(   20)=  0.5960   gamma=  667.45 GHz
     lambda(   21)=  0.2888   gamma=  396.30 GHz
     lambda(   22)=  0.1299   gamma=  347.62 GHz
     lambda(   23)=  0.1059   gamma=  363.00 GHz
     lambda(   24)=  0.2139   gamma=  764.39 GHz
     lambda(   25)=  0.1117   gamma=  571.94 GHz
     lambda(   26)=  0.0118   gamma=   63.62 GHz
     lambda(   27)=  0.0719   gamma=  409.91 GHz
     lambda(   28)=  0.0436   gamma=  292.81 GHz
     lambda(   29)=  0.0526   gamma=  369.44 GHz
     lambda(   30)=  0.0111   gamma=   78.13 GHz
     lambda(   31)=  0.0363   gamma=  277.08 GHz
     lambda(   32)=  0.0349   gamma=  315.55 GHz
     lambda(   33)=  0.0626   gamma=  615.74 GHz
     lambda(   34)=  0.0339   gamma=  374.58 GHz
     lambda(   35)=  0.0121   gamma=  137.39 GHz
     lambda(   36)=  0.0182   gamma=  210.12 GHz
     lambda(   37)=  0.0274   gamma=  331.13 GHz
     lambda(   38)=  0.0149   gamma=  193.03 GHz
     lambda(   39)=  0.0193   gamma=  258.03 GHz
     lambda(   40)=  0.0189   gamma=  266.79 GHz
     lambda(   41)=  0.0348   gamma=  557.71 GHz
     lambda(   42)=  0.0308   gamma=  505.42 GHz
     lambda(   43)=  0.0161   gamma=  271.40 GHz
     lambda(   44)=  0.0354   gamma=  615.46 GHz
     lambda(   45)=  0.0382   gamma=  666.48 GHz
     lambda(   46)=  0.0129   gamma=  225.63 GHz
     lambda(   47)=  0.0134   gamma=  257.49 GHz
     lambda(   48)=  0.0212   gamma=  408.83 GHz
     lambda(   49)=  0.0243   gamma=  497.75 GHz
     lambda(   50)=  0.0182   gamma=  396.84 GHz
     lambda(   51)=  0.0179   gamma=  414.96 GHz
     lambda(   52)=  0.0079   gamma=  196.82 GHz
     lambda(   53)=  0.0197   gamma=  502.22 GHz
     lambda(   54)=  0.0195   gamma=  527.61 GHz
     lambda(   55)=  0.0114   gamma=  322.82 GHz
     lambda(   56)=  0.0137   gamma=  409.68 GHz
     lambda(   57)=  0.0067   gamma=  201.02 GHz
     lambda(   58)=  0.0159   gamma=  516.58 GHz
     lambda(   59)=  0.0099   gamma=  351.07 GHz
     lambda(   60)=  0.0124   gamma=  467.77 GHz
     lambda(   61)=  0.0074   gamma=  308.47 GHz
     lambda(   62)=  0.0084   gamma=  387.61 GHz
     lambda(   63)=  0.0054   gamma=  264.29 GHz
     lambda(   64)=  0.0051   gamma=  334.93 GHz
     lambda(   65)=  0.0025   gamma=  224.42 GHz
     lambda(   66)=  0.0021   gamma=  274.08 GHz
 
     Number of q in the star =    6
     List of q in the star:
          1   0.852999215   0.492479326  -0.044279425
          2  -0.000000000  -0.984958652  -0.044279425
          3  -0.852999215   0.492479326  -0.044279425
          4  -0.852999215  -0.492479326   0.044279425
          5   0.852999215  -0.492479326   0.044279425
          6   0.000000000   0.984958652   0.044279425

     Calculation of q =    0.4264996   0.2462397   0.0442794
     [opt_tetra]  Optimized tetrahedron method is used.
 
     Parallelization info
     --------------------
     sticks:   dense  smooth     PW     G-vecs:    dense   smooth      PW
     Min          86      86     28                 1805     1805     341
     Max          87      87     29                 1808     1808     343
     Sum        1729    1729    569                36119    36119    6843
 
     Using Slab Decomposition
 

     Title: 
      Electron-phonon for LaYH20                                                


     bravais-lattice index     =            5
     lattice parameter (alat)  =      11.0055  a.u.
     unit-cell volume          =     373.2416 (a.u.)^3
     number of atoms/cell      =           22
     number of atomic types    =            3
     number of electrons       =        34.00
     number of Kohn-Sham states=           21
     kinetic-energy cutoff     =      80.0000  Ry
     charge density cutoff     =     320.0000  Ry
     Exchange-correlation= PZ
                           (   1   1   0   0   0   0   0)

     celldm(1)=  11.005504  celldm(2)=   0.000000  celldm(3)=   0.000000
     celldm(4)=   0.828204  celldm(5)=   0.000000  celldm(6)=   0.000000

     crystal axes: (cart. coord. in units of alat)
               a(1) = (   0.293084  -0.169212   0.940994 )  
               a(2) = (   0.000000   0.338424   0.940994 )  
               a(3) = (  -0.293084  -0.169212   0.940994 )  

     reciprocal axes: (cart. coord. in units 2 pi/alat)
               b(1) = (  1.705998 -0.984959  0.354235 )  
               b(2) = (  0.000000  1.969917  0.354235 )  
               b(3) = ( -1.705998 -0.984959  0.354235 )  


     PseudoPot. # 1 for La read from file:
     ./La.UPF
     MD5 check sum: 8e5991bce12d7f16f732aa20d6589152
     Pseudo is Norm-conserving, Zval = 11.0
     Generated in analytical, separable form
     Using radial grid of 1253 points,  7 beta functions with: 
                l(1) =   0
                l(2) =   0
                l(3) =   1
                l(4) =   1
                l(5) =   1
                l(6) =   2
                l(7) =   3

     PseudoPot. # 2 for H  read from file:
     ./H.UPF
     MD5 check sum: df8e43189db5a2d7f03d0dd74d71ce72
     Pseudo is Norm-conserving, Zval =  1.0
     Generated in analytical, separable form
     Using radial grid of  929 points,  0 beta functions with: 

     PseudoPot. # 3 for Y  read from file:
     ./Y.UPF
     MD5 check sum: 28b92b02874aa0fef5f1b1d2b706803c
     Pseudo is Norm-conserving, Zval =  3.0
     Generated in analytical, separable form
     Using radial grid of 1223 points,  7 beta functions with: 
                l(1) =   0
                l(2) =   0
                l(3) =   0
                l(4) =   1
                l(5) =   1
                l(6) =   2
                l(7) =   2

     atomic species   valence    mass     pseudopotential
        La            11.00   138.90547     La( 1.00)
        H              1.00     1.00794     H ( 1.00)
        Y              3.00    88.90585     Y ( 1.00)

     12 Sym. Ops., with inversion, found



   Cartesian axes

     site n.     atom                  positions (alat units)
         1           La  tau(   1) = (   0.0000000  -0.0000000   1.4114908  )
         2           Y   tau(   2) = (   0.0000000   0.0000000   0.0000000  )
         3           H   tau(   3) = (  -0.1428933   0.0824995   2.1618675  )
         4           H   tau(   4) = (   0.0000000  -0.1649990   2.1618675  )
         5           H   tau(   5) = (   0.1428933   0.0824995   2.1618675  )
         6           H   tau(   6) = (  -0.1428933  -0.0824995   0.6611140  )
         7           H   tau(   7) = (   0.0000000   0.1649990   0.6611140  )
         8           H   tau(   8) = (   0.1428933  -0.0824995   0.6611140  )
         9           H   tau(   9) = (   0.1519727  -0.0877415   1.7196220  )
        10           H   tau(  10) = (   0.0000000   0.1754830   1.7196220  )
        11           H   tau(  11) = (  -0.1519727  -0.0877415   1.7196220  )
        12           H   tau(  12) = (   0.1519727   0.0877415   1.1033595  )
        13           H   tau(  13) = (   0.0000000  -0.1754830   1.1033595  )
        14           H   tau(  14) = (  -0.1519727   0.0877415   1.1033595  )
        15           H   tau(  15) = (   0.0000000  -0.0000000   2.2800590  )
        16           H   tau(  16) = (   0.0000000  -0.0000000   0.5429225  )
        17           H   tau(  17) = (   0.0000000  -0.0000000   1.9452070  )
        18           H   tau(  18) = (   0.0000000  -0.0000000   0.8777746  )
        19           H   tau(  19) = (   0.0000000  -0.0000000   2.4758411  )
        20           H   tau(  20) = (   0.0000000  -0.0000000   0.3471405  )
        21           H   tau(  21) = (   0.0000000  -0.0000000   1.0612419  )
        22           H   tau(  22) = (   0.0000000  -0.0000000   1.7617396  )

     number of k points=  1872 (tetrahedron method)

     Number of k-points >= 100: set verbosity='high' to print them.

     Dense  grid:    36119 G-vectors     FFT dimensions: (  64,  64,  64)

     Estimated max dynamical RAM per process >      10.72 MB

     Estimated total dynamical RAM >     214.42 MB

     The potential is recalculated from file :
     ./_ph0/LaYH20.q_4/LaYH20.save/charge-density

     Starting wfcs are   20 atomic +    1 random wfcs

     Band Structure Calculation
     Davidson diagonalization with overlap
     c_bands:  1 eigenvalues not converged
     c_bands:  1 eigenvalues not converged
     c_bands:  1 eigenvalues not converged
     c_bands:  1 eigenvalues not converged
     c_bands:  1 eigenvalues not converged
     c_bands:  1 eigenvalues not converged
     c_bands:  1 eigenvalues not converged
     c_bands:  1 eigenvalues not converged
     c_bands:  1 eigenvalues not converged
     c_bands:  1 eigenvalues not converged
     c_bands:  1 eigenvalues not converged
     c_bands:  1 eigenvalues not converged
     c_bands:  1 eigenvalues not converged
     c_bands:  1 eigenvalues not converged
     c_bands:  1 eigenvalues not converged
     c_bands:  1 eigenvalues not converged
     c_bands:  1 eigenvalues not converged
     c_bands:  1 eigenvalues not converged
     c_bands:  1 eigenvalues not converged
     c_bands:  1 eigenvalues not converged
     c_bands:  1 eigenvalues not converged
     c_bands:  1 eigenvalues not converged
     c_bands:  1 eigenvalues not converged
     c_bands:  1 eigenvalues not converged
     c_bands:  1 eigenvalues not converged
     c_bands:  1 eigenvalues not converged
     c_bands:  1 eigenvalues not converged
     c_bands:  1 eigenvalues not converged
     c_bands:  1 eigenvalues not converged
     c_bands:  1 eigenvalues not converged

     ethr =  2.94E-11,  avg # of iterations = 50.9

     total cpu time spent up to now is     2140.3 secs

     End of band structure calculation

     Number of k-points >= 100: set verbosity='high' to print the bands.

     the Fermi energy is    17.1925 ev

     Writing config to output data dir ./_ph0/LaYH20.q_4/LaYH20.save/
 
     [dfpt_tetra]  Dos(E_F)[/Ry] :   0.2115930E+02

      Electron-phonon for LaYH20                                                

     bravais-lattice index     =            5
     lattice parameter (alat)  =      11.0055  a.u.
     unit-cell volume          =     373.2416 (a.u.)^3
     number of atoms/cell      =           22
     number of atomic types    =            3
     kinetic-energy cut-off    =      80.0000  Ry
     charge density cut-off    =     320.0000  Ry
     convergence threshold     =      1.0E-08
     beta                      =       0.7000
     number of iterations used =            4
[...]
     kinetic-energy cut-off    =      80.0000  Ry
     charge density cut-off    =     320.0000  Ry
     convergence threshold     =      1.0E-08
     beta                      =       0.7000
     number of iterations used =            4
     Exchange-correlation= PZ
                           (   1   1   0   0   0   0   0)


     celldm(1)=   11.00550  celldm(2)=    0.00000  celldm(3)=    0.00000
     celldm(4)=    0.82820  celldm(5)=    0.00000  celldm(6)=    0.00000

     crystal axes: (cart. coord. in units of alat)
               a(1) = (  0.2931 -0.1692  0.9410 )  
               a(2) = (  0.0000  0.3384  0.9410 )  
               a(3) = ( -0.2931 -0.1692  0.9410 )  

     reciprocal axes: (cart. coord. in units 2 pi/alat)
               b(1) = (  1.7060 -0.9850  0.3542 )  
               b(2) = (  0.0000  1.9699  0.3542 )  
               b(3) = ( -1.7060 -0.9850  0.3542 )  


     Atoms inside the unit cell: 

     Cartesian axes

     site n.  atom      mass           positions (alat units)
        1     La 138.9055   tau(    1) = (    0.00000   -0.00000    1.41149  )
        2     Y   88.9059   tau(    2) = (    0.00000    0.00000    0.00000  )
        3     H    1.0079   tau(    3) = (   -0.14289    0.08250    2.16187  )
        4     H    1.0079   tau(    4) = (    0.00000   -0.16500    2.16187  )
        5     H    1.0079   tau(    5) = (    0.14289    0.08250    2.16187  )
        6     H    1.0079   tau(    6) = (   -0.14289   -0.08250    0.66111  )
        7     H    1.0079   tau(    7) = (    0.00000    0.16500    0.66111  )
        8     H    1.0079   tau(    8) = (    0.14289   -0.08250    0.66111  )
        9     H    1.0079   tau(    9) = (    0.15197   -0.08774    1.71962  )
       10     H    1.0079   tau(   10) = (    0.00000    0.17548    1.71962  )
       11     H    1.0079   tau(   11) = (   -0.15197   -0.08774    1.71962  )
       12     H    1.0079   tau(   12) = (    0.15197    0.08774    1.10336  )
       13     H    1.0079   tau(   13) = (    0.00000   -0.17548    1.10336  )
       14     H    1.0079   tau(   14) = (   -0.15197    0.08774    1.10336  )
       15     H    1.0079   tau(   15) = (    0.00000   -0.00000    2.28006  )
       16     H    1.0079   tau(   16) = (    0.00000   -0.00000    0.54292  )
       17     H    1.0079   tau(   17) = (    0.00000   -0.00000    1.94521  )
       18     H    1.0079   tau(   18) = (    0.00000   -0.00000    0.87777  )
       19     H    1.0079   tau(   19) = (    0.00000   -0.00000    2.47584  )
       20     H    1.0079   tau(   20) = (    0.00000   -0.00000    0.34714  )
       21     H    1.0079   tau(   21) = (    0.00000   -0.00000    1.06124  )
       22     H    1.0079   tau(   22) = (    0.00000   -0.00000    1.76174  )

     Computing dynamical matrix for 
                    q = (   1.2794988   0.7387190   0.1328383 )
 
      2 Sym.Ops. (no q -> -q+G )


     G cutoff =  981.7709  (   1808 G-vectors)     FFT grid: ( 64, 64, 64)
     number of k points=  1872

     PseudoPot. # 1 for La read from file:
     ./La.UPF
     MD5 check sum: 8e5991bce12d7f16f732aa20d6589152
     Pseudo is Norm-conserving, Zval = 11.0
     Generated in analytical, separable form
     Using radial grid of 1253 points,  7 beta functions with: 
                l(1) =   0
                l(2) =   0
                l(3) =   1
                l(4) =   1
                l(5) =   1
                l(6) =   2
                l(7) =   3

     PseudoPot. # 2 for H  read from file:
     ./H.UPF
     MD5 check sum: df8e43189db5a2d7f03d0dd74d71ce72
     Pseudo is Norm-conserving, Zval =  1.0
     Generated in analytical, separable form
     Using radial grid of  929 points,  0 beta functions with: 

     PseudoPot. # 3 for Y  read from file:
     ./Y.UPF
     MD5 check sum: 28b92b02874aa0fef5f1b1d2b706803c
     Pseudo is Norm-conserving, Zval =  3.0
     Generated in analytical, separable form
     Using radial grid of 1223 points,  7 beta functions with: 
                l(1) =   0
                l(2) =   0
                l(3) =   0
                l(4) =   1
                l(5) =   1
                l(6) =   2
                l(7) =   2

     Mode symmetry, C_s (m)     point group:


     Atomic displacements:
     There are   66 irreducible representations

     Representation     1      1 modes -  To be done

     Representation     2      1 modes -  To be done

     Representation     3      1 modes -  To be done

     Representation     4      1 modes -  To be done

     Representation     5      1 modes -  To be done

     Representation     6      1 modes -  To be done

     Representation     7      1 modes -  To be done

     Representation     8      1 modes -  To be done

     Representation     9      1 modes -  To be done

     Representation    10      1 modes -  To be done

     Representation    11      1 modes -  To be done

     Representation    12      1 modes -  To be done

     Representation    13      1 modes -  To be done

     Representation    14      1 modes -  To be done

     Representation    15      1 modes -  To be done

     Representation    16      1 modes -  To be done

     Representation    17      1 modes -  To be done

     Representation    18      1 modes -  To be done

     Representation    19      1 modes -  To be done

     Representation    20      1 modes -  To be done

     Representation    21      1 modes -  To be done

     Representation    22      1 modes -  To be done

     Representation    23      1 modes -  To be done

     Representation    24      1 modes -  To be done

     Representation    25      1 modes -  To be done

     Representation    26      1 modes -  To be done

     Representation    27      1 modes -  To be done

     Representation    28      1 modes -  To be done

     Representation    29      1 modes -  To be done

     Representation    30      1 modes -  To be done

     Representation    31      1 modes -  To be done

     Representation    32      1 modes -  To be done

     Representation    33      1 modes -  To be done

     Representation    34      1 modes -  To be done

     Representation    35      1 modes -  To be done

     Representation    36      1 modes -  To be done

     Representation    37      1 modes -  To be done

     Representation    38      1 modes -  To be done

     Representation    39      1 modes -  To be done

     Representation    40      1 modes -  To be done

     Representation    41      1 modes -  To be done

     Representation    42      1 modes -  To be done

     Representation    43      1 modes -  To be done

     Representation    44      1 modes -  To be done

     Representation    45      1 modes -  To be done

     Representation    46      1 modes -  To be done

     Representation    47      1 modes -  To be done

     Representation    48      1 modes -  To be done

     Representation    49      1 modes -  To be done

     Representation    50      1 modes -  To be done

     Representation    51      1 modes -  To be done

     Representation    52      1 modes -  To be done

     Representation    53      1 modes -  To be done

     Representation    54      1 modes -  To be done

     Representation    55      1 modes -  To be done

     Representation    56      1 modes -  To be done

     Representation    57      1 modes -  To be done

     Representation    58      1 modes -  To be done

     Representation    59      1 modes -  To be done

     Representation    60      1 modes -  To be done

     Representation    61      1 modes -  To be done

     Representation    62      1 modes -  To be done

     Representation    63      1 modes -  To be done

     Representation    64      1 modes -  To be done

     Representation    65      1 modes -  To be done

     Representation    66      1 modes -  To be done


     PHONON       :      3h10m CPU      3h17m WALL

     Reading dVscf from file dv
     Reading dynamics matrix from file LaYH20.dyn10

     Diagonalizing the dynamical matrix

     q = (    1.279498822   0.738718989   0.132838276 ) 

 **************************************************************************
     freq (    1) =     -63.268554 [THz] =   -2110.411791 [cm-1]
     freq (    2) =     -56.014889 [THz] =   -1868.455562 [cm-1]
     freq (    3) =     -51.819554 [THz] =   -1728.514273 [cm-1]
     freq (    4) =     -49.266543 [THz] =   -1643.354990 [cm-1]
     freq (    5) =     -48.916082 [THz] =   -1631.664861 [cm-1]
     freq (    6) =     -43.278314 [THz] =   -1443.609157 [cm-1]
     freq (    7) =     -32.473402 [THz] =   -1083.196094 [cm-1]
     freq (    8) =     -30.387115 [THz] =   -1013.605052 [cm-1]
     freq (    9) =     -27.645255 [THz] =    -922.146447 [cm-1]
     freq (   10) =     -21.949618 [THz] =    -732.160451 [cm-1]
     freq (   11) =     -19.715467 [THz] =    -657.637181 [cm-1]
     freq (   12) =     -18.402840 [THz] =    -613.852674 [cm-1]
     freq (   13) =     -11.272950 [THz] =    -376.025144 [cm-1]
     freq (   14) =     -11.009185 [THz] =    -367.226873 [cm-1]
     freq (   15) =      -4.998898 [THz] =    -166.745285 [cm-1]
     freq (   16) =       1.600468 [THz] =      53.385850 [cm-1]
     freq (   17) =       4.029629 [THz] =     134.413959 [cm-1]
     freq (   18) =       5.050771 [THz] =     168.475572 [cm-1]
     freq (   19) =       5.930430 [THz] =     197.817855 [cm-1]
     freq (   20) =       8.047565 [THz] =     268.437881 [cm-1]
     freq (   21) =      10.185641 [THz] =     339.756405 [cm-1]
     freq (   22) =      11.718983 [THz] =     390.903189 [cm-1]
     freq (   23) =      13.385583 [THz] =     446.494983 [cm-1]
     freq (   24) =      16.380524 [THz] =     546.395475 [cm-1]
     freq (   25) =      20.601614 [THz] =     687.195861 [cm-1]
     freq (   26) =      23.666211 [THz] =     789.419819 [cm-1]
     freq (   27) =      24.681713 [THz] =     823.293314 [cm-1]
     freq (   28) =      25.511659 [THz] =     850.977335 [cm-1]
     freq (   29) =      26.675870 [THz] =     889.811245 [cm-1]
     freq (   30) =      26.780934 [THz] =     893.315815 [cm-1]
     freq (   31) =      27.342204 [THz] =     912.037741 [cm-1]
     freq (   32) =      28.686833 [THz] =     956.889764 [cm-1]
     freq (   33) =      28.953529 [THz] =     965.785776 [cm-1]
     freq (   34) =      29.713260 [THz] =     991.127662 [cm-1]
     freq (   35) =      31.366729 [THz] =    1046.281452 [cm-1]
     freq (   36) =      32.307508 [THz] =    1077.662482 [cm-1]
     freq (   37) =      32.318808 [THz] =    1078.039393 [cm-1]
     freq (   38) =      33.345728 [THz] =    1112.293760 [cm-1]
     freq (   39) =      33.889042 [THz] =    1130.416777 [cm-1]
     freq (   40) =      35.214447 [THz] =    1174.627502 [cm-1]
     freq (   41) =      35.613489 [THz] =    1187.938133 [cm-1]
     freq (   42) =      35.673134 [THz] =    1189.927663 [cm-1]
     freq (   43) =      37.186079 [THz] =    1240.394066 [cm-1]
     freq (   44) =      38.735363 [THz] =    1292.072630 [cm-1]
     freq (   45) =      40.359948 [THz] =    1346.262965 [cm-1]
     freq (   46) =      41.153184 [THz] =    1372.722446 [cm-1]
     freq (   47) =      41.558207 [THz] =    1386.232583 [cm-1]
     freq (   48) =      42.662638 [THz] =    1423.072425 [cm-1]
     freq (   49) =      42.716651 [THz] =    1424.874118 [cm-1]
     freq (   50) =      46.895972 [THz] =    1564.281249 [cm-1]
     freq (   51) =      47.620291 [THz] =    1588.441926 [cm-1]
     freq (   52) =      47.813334 [THz] =    1594.881152 [cm-1]
     freq (   53) =      48.296519 [THz] =    1610.998471 [cm-1]
     freq (   54) =      49.748574 [THz] =    1659.433823 [cm-1]
     freq (   55) =      51.539148 [THz] =    1719.160929 [cm-1]
     freq (   56) =      51.790416 [THz] =    1727.542342 [cm-1]
     freq (   57) =      53.198546 [THz] =    1774.512480 [cm-1]
     freq (   58) =      54.208782 [THz] =    1808.210338 [cm-1]
     freq (   59) =      56.311329 [THz] =    1878.343753 [cm-1]
     freq (   60) =      56.980766 [THz] =    1900.673770 [cm-1]
     freq (   61) =      58.371578 [THz] =    1947.066260 [cm-1]
     freq (   62) =      59.053350 [THz] =    1969.807739 [cm-1]
     freq (   63) =      61.268191 [THz] =    2043.686872 [cm-1]
     freq (   64) =      67.815227 [THz] =    2262.072475 [cm-1]
     freq (   65) =      75.417692 [THz] =    2515.663415 [cm-1]
     freq (   66) =     105.299392 [THz] =    3512.409638 [cm-1]
 **************************************************************************

     [elph_tetra]   Lowest band which contains FS :         15
     [elph_tetra]  Highest band which contains FS :         20
     [elph_tetra]    # of bands which contains FS :          6
 
     Tetrahedron method
     DOS = 10.579650 states/spin/Ry/Unit Cell at Ef= 17.192547 eV
     double delta at Ef =249.562469
     lambda(    1)=  0.0000   gamma=    0.00 GHz
     lambda(    2)=  0.0000   gamma=    0.00 GHz
     lambda(    3)=  0.0000   gamma=    0.00 GHz
     lambda(    4)=  0.0000   gamma=    0.00 GHz
     lambda(    5)=  0.0000   gamma=    0.00 GHz
     lambda(    6)=  0.0000   gamma=    0.00 GHz
     lambda(    7)=  0.0000   gamma=    0.00 GHz
     lambda(    8)=  0.0000   gamma=    0.00 GHz
     lambda(    9)=  0.0000   gamma=    0.00 GHz
     lambda(   10)=  0.0000   gamma=    0.00 GHz
     lambda(   11)=  0.0000   gamma=    0.00 GHz
     lambda(   12)=  0.0000   gamma=    0.00 GHz
     lambda(   13)=  0.0000   gamma=    0.00 GHz
     lambda(   14)=  0.0000   gamma=    0.00 GHz
     lambda(   15)=  0.0000   gamma=    0.00 GHz
     lambda(   16)=  1.7236   gamma=   44.60 GHz
     lambda(   17)=  0.4151   gamma=   68.10 GHz
     lambda(   18)=  0.6002   gamma=  154.70 GHz
     lambda(   19)=  0.4801   gamma=  170.61 GHz
     lambda(   20)=  0.1987   gamma=  129.98 GHz
     lambda(   21)=  0.9049   gamma=  948.50 GHz
     lambda(   22)=  0.5002   gamma=  693.99 GHz
     lambda(   23)=  0.2741   gamma=  496.12 GHz
     lambda(   24)=  0.2181   gamma=  591.30 GHz
     lambda(   25)=  0.1435   gamma=  615.26 GHz
     lambda(   26)=  0.1067   gamma=  603.79 GHz
     lambda(   27)=  0.0173   gamma=  106.26 GHz
     lambda(   28)=  0.0497   gamma=  326.49 GHz
     lambda(   29)=  0.0170   gamma=  122.04 GHz
     lambda(   30)=  0.0849   gamma=  614.85 GHz
     lambda(   31)=  0.0579   gamma=  437.42 GHz
     lambda(   32)=  0.0443   gamma=  368.16 GHz
     lambda(   33)=  0.0518   gamma=  438.48 GHz
     lambda(   34)=  0.0483   gamma=  430.83 GHz
     lambda(   35)=  0.0449   gamma=  445.84 GHz
     lambda(   36)=  0.0350   gamma=  369.26 GHz
     lambda(   37)=  0.0185   gamma=  194.81 GHz
     lambda(   38)=  0.0496   gamma=  557.57 GHz
     lambda(   39)=  0.0228   gamma=  264.00 GHz
     lambda(   40)=  0.0368   gamma=  460.72 GHz
     lambda(   41)=  0.0153   gamma=  195.41 GHz
     lambda(   42)=  0.0331   gamma=  425.90 GHz
     lambda(   43)=  0.0403   gamma=  562.45 GHz
     lambda(   44)=  0.0242   gamma=  366.90 GHz
     lambda(   45)=  0.0291   gamma=  479.40 GHz
     lambda(   46)=  0.0171   gamma=  291.96 GHz
     lambda(   47)=  0.0442   gamma=  770.52 GHz
     lambda(   48)=  0.0263   gamma=  482.78 GHz
     lambda(   49)=  0.0140   gamma=  258.65 GHz
     lambda(   50)=  0.0379   gamma=  841.38 GHz
     lambda(   51)=  0.0088   gamma=  202.07 GHz
     lambda(   52)=  0.0224   gamma=  517.05 GHz
     lambda(   53)=  0.0271   gamma=  638.46 GHz
     lambda(   54)=  0.0125   gamma=  313.17 GHz
     lambda(   55)=  0.0084   gamma=  225.17 GHz
     lambda(   56)=  0.0144   gamma=  390.28 GHz
     lambda(   57)=  0.0164   gamma=  467.88 GHz
     lambda(   58)=  0.0177   gamma=  524.63 GHz
     lambda(   59)=  0.0114   gamma=  364.48 GHz
     lambda(   60)=  0.0160   gamma=  523.90 GHz
     lambda(   61)=  0.0078   gamma=  267.36 GHz
     lambda(   62)=  0.0087   gamma=  305.95 GHz
     lambda(   63)=  0.0160   gamma=  606.84 GHz
     lambda(   64)=  0.0091   gamma=  421.03 GHz
     lambda(   65)=  0.0042   gamma=  242.35 GHz
     lambda(   66)=  0.0022   gamma=  241.79 GHz
 
     Number of q in the star =    6
     List of q in the star:
          1   1.279498822   0.738718989   0.132838276
          2  -0.000000000  -1.477437978   0.132838276
          3  -1.279498822   0.738718989   0.132838276
          4  -1.279498822  -0.738718989  -0.132838276
          5   1.279498822  -0.738718989  -0.132838276
          6   0.000000000   1.477437978  -0.132838276
 
     init_run     :      0.84s CPU      1.32s WALL (      10 calls)
     electrons    :   6191.49s CPU   6466.64s WALL (      10 calls)

     Called by init_run:
     wfcinit      :      0.00s CPU      0.07s WALL (      10 calls)
     potinit      :      0.03s CPU      0.41s WALL (      10 calls)
     hinit0       :      0.35s CPU      0.36s WALL (      10 calls)

     Called by electrons:
     c_bands      :   6177.63s CPU   6452.73s WALL (      10 calls)
     v_of_rho     :      0.02s CPU      0.02s WALL (      11 calls)

     Called by c_bands:
     init_us_2    :    108.74s CPU    112.09s WALL (  660184 calls)
     init_us_2:cp :    106.99s CPU    110.59s WALL (  660184 calls)
     cegterg      :   4686.85s CPU   4782.27s WALL (   58541 calls)

     Called by *egterg:
     cdiaghg      :   1298.30s CPU   1317.18s WALL ( 1015929 calls)
     h_psi        :   3245.23s CPU   3320.95s WALL ( 1074470 calls)
     g_psi        :      9.28s CPU      9.42s WALL (  996329 calls)

     Called by h_psi:
     h_psi:calbec :     85.29s CPU     87.39s WALL ( 1074470 calls)
     vloc_psi     :   3109.20s CPU   3181.67s WALL ( 1074470 calls)
     add_vuspsi   :     36.56s CPU     37.64s WALL ( 1074470 calls)

     General routines
     calbec       :     85.43s CPU     88.09s WALL ( 1113670 calls)
     fft          :      0.02s CPU      0.05s WALL (      33 calls)
     ffts         :    126.83s CPU    138.41s WALL (  646800 calls)
     fftw         :   7007.18s CPU   7191.42s WALL (56821288 calls)
     davcio       :     40.06s CPU    216.76s WALL ( 1301617 calls)
 
     Parallel routines
 
     PHONON       :      3h19m CPU      3h27m WALL

     INITIALIZATION: 
     phq_setup    :      1.80s CPU      2.74s WALL (      10 calls)
     phq_init     :      5.68s CPU      6.43s WALL (      10 calls)
 
     phq_init     :      5.68s CPU      6.43s WALL (      10 calls)
     init_vloc    :      0.28s CPU      0.28s WALL (      11 calls)
     init_us_1    :      0.11s CPU      0.11s WALL (      11 calls)
     init_us_2    :    108.74s CPU    112.09s WALL (  660184 calls)
 
 
 
 
     dvqpsi_us    :   4380.57s CPU   4515.67s WALL (  646800 calls)
     apply_dpot_b :   1157.76s CPU   1186.70s WALL (  646800 calls)
     vpsifft      :   1166.96s CPU   1196.22s WALL (  646800 calls)
 
     dvqpsi_us    :   4380.57s CPU   4515.67s WALL (  646800 calls)
     dvqpsi_us_on :    335.68s CPU    342.13s WALL (  646800 calls)
 
 
     h_psi        :   3245.23s CPU   3320.95s WALL ( 1074470 calls)
 
     h_psi        :   3245.23s CPU   3320.95s WALL ( 1074470 calls)
     add_vuspsi   :     36.56s CPU     37.64s WALL ( 1074470 calls)
 
 
 
      Electron-phonon coupling
     elphon       :   5730.17s CPU   5905.97s WALL (      10 calls)
     elphel       :   5729.03s CPU   5901.48s WALL (     616 calls)
 
      General routines
     calbec       :     85.43s CPU     88.09s WALL ( 1113670 calls)
     fft          :      0.02s CPU      0.05s WALL (      33 calls)
     ffts         :    126.83s CPU    138.41s WALL (  646800 calls)
     fftw         :   7007.18s CPU   7191.42s WALL (56821288 calls)
     davcio       :     40.06s CPU    216.76s WALL ( 1301617 calls)
 
 
     PHONON       :      3h19m CPU      3h27m WALL

 
   This run was terminated on:  10:26:59  29May2022            

=------------------------------------------------------------------------------=
   JOB DONE.
=------------------------------------------------------------------------------=
