
     Program PHONON v.7.0 starts on 26May2022 at 19:36:12 

     This program is part of the open-source Quantum ESPRESSO suite
     for quantum simulation of materials; please cite
         "P. Giannozzi et al., J. Phys.:Condens. Matter 21 395502 (2009);
         "P. Giannozzi et al., J. Phys.:Condens. Matter 29 465901 (2017);
         "P. Giannozzi et al., J. Chem. Phys. 152 154105 (2020);
          URL http://www.quantum-espresso.org", 
     in publications or presentations arising from this work. More details at
     http://www.quantum-espresso.org/quote

     Parallel version (MPI), running on    24 processors

     MPI processes distributed on     1 nodes
     R & G space division:  proc/nbgrp/npool/nimage =      24
     87009 MiB available memory on the printing compute node when the environment starts
 
     Reading input from /home/mgrebenyuk/QE/Examples/LaYH20/180GPa/4x4x4/ph.in

     Reading xml data from directory:

     ./LaYH20.save/

     IMPORTANT: XC functional enforced from input :
     Exchange-correlation= PZ
                           (   1   1   0   0   0   0   0)
     Any further DFT definition will be discarded
     Please, verify this is what you really want

 
     Parallelization info
     --------------------
     sticks:   dense  smooth     PW     G-vecs:    dense   smooth      PW
     Min          73      73     22                 1550     1550     267
     Max          74      74     23                 1553     1553     270
     Sum        1767    1767    547                37235    37235    6453
 
     Using Slab Decomposition
 
     Reading collected, re-writing distributed wavefunctions


     Dynamical matrices for ( 4, 4, 4)  uniform grid of q-points
     With a half shift
     (  10 q-points):
       N         xq(1)         xq(2)         xq(3) 
       1   0.000000000   0.000000000   0.132838614
       2  -0.426491219  -0.246234820   0.221397690
       3   0.852982437   0.492469640  -0.044279538
       4   0.426491219   0.246234820   0.044279538
       5  -0.426491219   0.246234820   0.309956766
       6   0.852982437   0.984939279   0.044279538
       7   0.426491219   0.738704460   0.132838614
       8   0.852982437  -0.492469640  -0.221397690
       9   0.000000000   0.000000000   0.398515843
      10   1.279473656   0.738704460   0.132838614
     Because shifted q grid is used, q2r will not work !

     Saving dvscf to file. Distribute only q points, not irreducible represetations.

     Calculation of q =    0.0000000   0.0000000   0.1328386

     Subspace diagonalization in iterative solution of the eigenvalue problem:
     a serial algorithm will be used

     [opt_tetra]  Optimized tetrahedron method is used.
 
     Parallelization info
     --------------------
     sticks:   dense  smooth     PW     G-vecs:    dense   smooth      PW
     Min          73      73     22                 1550     1550     267
     Max          74      74     23                 1553     1553     271
     Sum        1767    1767    547                37235    37235    6465
 
     Using Slab Decomposition
 

     Title: 
     Electron-phonon coefficients for LaYH20                                    


     bravais-lattice index     =            5
     lattice parameter (alat)  =      11.1245  a.u.
     unit-cell volume          =     385.4953 (a.u.)^3
     number of atoms/cell      =           22
     number of atomic types    =            3
     number of electrons       =        34.00
     number of Kohn-Sham states=           21
     kinetic-energy cutoff     =      80.0000  Ry
     charge density cutoff     =     320.0000  Ry
     Exchange-correlation= PZ
                           (   1   1   0   0   0   0   0)

     celldm(1)=  11.124512  celldm(2)=   0.000000  celldm(3)=   0.000000
     celldm(4)=   0.828197  celldm(5)=   0.000000  celldm(6)=   0.000000

     crystal axes: (cart. coord. in units of alat)
               a(1) = (   0.293089  -0.169215   0.940991 )  
               a(2) = (   0.000000   0.338430   0.940991 )  
               a(3) = (  -0.293089  -0.169215   0.940991 )  

     reciprocal axes: (cart. coord. in units 2 pi/alat)
               b(1) = (  1.705965 -0.984939  0.354236 )  
               b(2) = (  0.000000  1.969879  0.354236 )  
               b(3) = ( -1.705965 -0.984939  0.354236 )  


     PseudoPot. # 1 for La read from file:
     ./La.UPF
     MD5 check sum: 8e5991bce12d7f16f732aa20d6589152
     Pseudo is Norm-conserving, Zval = 11.0
     Generated in analytical, separable form
     Using radial grid of 1253 points,  7 beta functions with: 
                l(1) =   0
                l(2) =   0
                l(3) =   1
                l(4) =   1
                l(5) =   1
                l(6) =   2
                l(7) =   3

     PseudoPot. # 2 for H  read from file:
     ./H.UPF
     MD5 check sum: df8e43189db5a2d7f03d0dd74d71ce72
     Pseudo is Norm-conserving, Zval =  1.0
     Generated in analytical, separable form
     Using radial grid of  929 points,  0 beta functions with: 

     PseudoPot. # 3 for Y  read from file:
     ./Y.UPF
     MD5 check sum: 28b92b02874aa0fef5f1b1d2b706803c
     Pseudo is Norm-conserving, Zval =  3.0
     Generated in analytical, separable form
     Using radial grid of 1223 points,  7 beta functions with: 
                l(1) =   0
                l(2) =   0
                l(3) =   0
                l(4) =   1
                l(5) =   1
                l(6) =   2
                l(7) =   2

     atomic species   valence    mass     pseudopotential
        La            11.00   138.90547     La( 1.00)
        H              1.00     1.00794     H ( 1.00)
        Y              3.00    88.90585     Y ( 1.00)

     12 Sym. Ops., with inversion, found



   Cartesian axes

     site n.     atom                  positions (alat units)
         1           La  tau(   1) = (   0.0000000  -0.0000000   1.4114872  )
         2           Y   tau(   2) = (   0.0000000   0.0000000   0.0000000  )
         3           H   tau(   3) = (  -0.1430193   0.0825722   2.1620011  )
         4           H   tau(   4) = (   0.0000000  -0.1651445   2.1620011  )
         5           H   tau(   5) = (   0.1430193   0.0825722   2.1620011  )
         6           H   tau(   6) = (  -0.1430193  -0.0825722   0.6609733  )
         7           H   tau(   7) = (   0.0000000   0.1651445   0.6609733  )
         8           H   tau(   8) = (   0.1430193  -0.0825722   0.6609733  )
         9           H   tau(   9) = (   0.1519197  -0.0877109   1.7193890  )
        10           H   tau(  10) = (   0.0000000   0.1754217   1.7193890  )
        11           H   tau(  11) = (  -0.1519197  -0.0877109   1.7193890  )
        12           H   tau(  12) = (   0.1519197   0.0877109   1.1035854  )
        13           H   tau(  13) = (   0.0000000  -0.1754217   1.1035854  )
        14           H   tau(  14) = (  -0.1519197   0.0877109   1.1035854  )
        15           H   tau(  15) = (   0.0000000  -0.0000000   2.2802090  )
        16           H   tau(  16) = (   0.0000000  -0.0000000   0.5427654  )
        17           H   tau(  17) = (   0.0000000  -0.0000000   1.9456472  )
        18           H   tau(  18) = (   0.0000000  -0.0000000   0.8773271  )
        19           H   tau(  19) = (   0.0000000  -0.0000000   2.4752083  )
        20           H   tau(  20) = (   0.0000000  -0.0000000   0.3477661  )
        21           H   tau(  21) = (   0.0000000  -0.0000000   1.0605137  )
        22           H   tau(  22) = (   0.0000000  -0.0000000   1.7624606  )

     number of k points=   728 (tetrahedron method)

     Number of k-points >= 100: set verbosity='high' to print them.

     Dense  grid:    37235 G-vectors     FFT dimensions: (  64,  64,  64)

     Estimated max dynamical RAM per process >      10.21 MB

     Estimated total dynamical RAM >     245.03 MB

     The potential is recalculated from file :
     ./_ph0/LaYH20.q_1/LaYH20.save/charge-density

     Starting wfcs are   20 atomic +    1 random wfcs

     Band Structure Calculation
     Davidson diagonalization with overlap
     c_bands:  1 eigenvalues not converged
     c_bands:  1 eigenvalues not converged
     c_bands:  1 eigenvalues not converged
     c_bands:  1 eigenvalues not converged
     c_bands:  1 eigenvalues not converged
     c_bands:  1 eigenvalues not converged
     c_bands:  1 eigenvalues not converged
     c_bands:  1 eigenvalues not converged
     c_bands:  1 eigenvalues not converged
     c_bands:  1 eigenvalues not converged

     ethr =  2.94E-11,  avg # of iterations = 50.6

     total cpu time spent up to now is      183.6 secs

     End of band structure calculation

     Number of k-points >= 100: set verbosity='high' to print the bands.

     the Fermi energy is    16.6364 ev

     Writing config to output data dir ./_ph0/LaYH20.q_1/LaYH20.save/
 
     [dfpt_tetra]  Dos(E_F)[/Ry] :   0.2159144E+02

     Electron-phonon coefficients for LaYH20                                    

     bravais-lattice index     =            5
     lattice parameter (alat)  =      11.1245  a.u.
     unit-cell volume          =     385.4953 (a.u.)^3
     number of atoms/cell      =           22
     number of atomic types    =            3
     kinetic-energy cut-off    =      80.0000  Ry
     charge density cut-off    =     320.0000  Ry
     convergence threshold     =      1.0E-08
     beta                      =       0.7000
     number of iterations used =            4
     Exchange-correlation= PZ
                           (   1   1   0   0   0   0   0)


     celldm(1)=   11.12451  celldm(2)=    0.00000  celldm(3)=    0.00000
     celldm(4)=    0.82820  celldm(5)=    0.00000  celldm(6)=    0.00000

     crystal axes: (cart. coord. in units of alat)
               a(1) = (  0.2931 -0.1692  0.9410 )  
               a(2) = (  0.0000  0.3384  0.9410 )  
               a(3) = ( -0.2931 -0.1692  0.9410 )  

     reciprocal axes: (cart. coord. in units 2 pi/alat)
               b(1) = (  1.7060 -0.9849  0.3542 )  
               b(2) = (  0.0000  1.9699  0.3542 )  
               b(3) = ( -1.7060 -0.9849  0.3542 )  


     Atoms inside the unit cell: 

     Cartesian axes

     site n.  atom      mass           positions (alat units)
        1     La 138.9055   tau(    1) = (    0.00000   -0.00000    1.41149  )
        2     Y   88.9059   tau(    2) = (    0.00000    0.00000    0.00000  )
        3     H    1.0079   tau(    3) = (   -0.14302    0.08257    2.16200  )
        4     H    1.0079   tau(    4) = (    0.00000   -0.16514    2.16200  )
        5     H    1.0079   tau(    5) = (    0.14302    0.08257    2.16200  )
        6     H    1.0079   tau(    6) = (   -0.14302   -0.08257    0.66097  )
        7     H    1.0079   tau(    7) = (    0.00000    0.16514    0.66097  )
        8     H    1.0079   tau(    8) = (    0.14302   -0.08257    0.66097  )
        9     H    1.0079   tau(    9) = (    0.15192   -0.08771    1.71939  )
       10     H    1.0079   tau(   10) = (    0.00000    0.17542    1.71939  )
       11     H    1.0079   tau(   11) = (   -0.15192   -0.08771    1.71939  )
       12     H    1.0079   tau(   12) = (    0.15192    0.08771    1.10359  )
       13     H    1.0079   tau(   13) = (    0.00000   -0.17542    1.10359  )
       14     H    1.0079   tau(   14) = (   -0.15192    0.08771    1.10359  )
       15     H    1.0079   tau(   15) = (    0.00000   -0.00000    2.28021  )
       16     H    1.0079   tau(   16) = (    0.00000   -0.00000    0.54277  )
       17     H    1.0079   tau(   17) = (    0.00000   -0.00000    1.94565  )
       18     H    1.0079   tau(   18) = (    0.00000   -0.00000    0.87733  )
       19     H    1.0079   tau(   19) = (    0.00000   -0.00000    2.47521  )
       20     H    1.0079   tau(   20) = (    0.00000   -0.00000    0.34777  )
       21     H    1.0079   tau(   21) = (    0.00000   -0.00000    1.06051  )
       22     H    1.0079   tau(   22) = (    0.00000   -0.00000    1.76246  )

     Computing dynamical matrix for 
                    q = (   0.0000000   0.0000000   0.1328386 )
 
      6 Sym.Ops. (no q -> -q+G )


     G cutoff = 1003.1184  (   1551 G-vectors)     FFT grid: ( 64, 64, 64)
     number of k points=   728

     PseudoPot. # 1 for La read from file:
     ./La.UPF
     MD5 check sum: 8e5991bce12d7f16f732aa20d6589152
     Pseudo is Norm-conserving, Zval = 11.0
     Generated in analytical, separable form
     Using radial grid of 1253 points,  7 beta functions with: 
                l(1) =   0
                l(2) =   0
                l(3) =   1
                l(4) =   1
                l(5) =   1
                l(6) =   2
                l(7) =   3

     PseudoPot. # 2 for H  read from file:
     ./H.UPF
     MD5 check sum: df8e43189db5a2d7f03d0dd74d71ce72
     Pseudo is Norm-conserving, Zval =  1.0
     Generated in analytical, separable form
     Using radial grid of  929 points,  0 beta functions with: 

     PseudoPot. # 3 for Y  read from file:
     ./Y.UPF
     MD5 check sum: 28b92b02874aa0fef5f1b1d2b706803c
     Pseudo is Norm-conserving, Zval =  3.0
     Generated in analytical, separable form
     Using radial grid of 1223 points,  7 beta functions with: 
                l(1) =   0
                l(2) =   0
                l(3) =   0
                l(4) =   1
                l(5) =   1
                l(6) =   2
                l(7) =   2

     Mode symmetry, C_3v (3m)   point group:


     Atomic displacements:
     There are   44 irreducible representations

     Representation     1      1 modes -  To be done

     Representation     2      1 modes -  To be done

     Representation     3      1 modes -  To be done

     Representation     4      1 modes -  To be done

     Representation     5      1 modes -  To be done

     Representation     6      1 modes -  To be done

     Representation     7      1 modes -  To be done

     Representation     8      1 modes -  To be done

     Representation     9      1 modes -  To be done

     Representation    10      1 modes -  To be done

     Representation    11      1 modes -  To be done

     Representation    12      1 modes -  To be done

     Representation    13      1 modes -  To be done

     Representation    14      1 modes -  To be done

     Representation    15      1 modes -  To be done

     Representation    16      1 modes -  To be done

     Representation    17      1 modes -  To be done

     Representation    18      1 modes -  To be done

     Representation    19      1 modes -  To be done

     Representation    20      1 modes -  To be done

     Representation    21      1 modes -  To be done

     Representation    22      1 modes -  To be done

     Representation    23      2 modes -  To be done

     Representation    24      2 modes -  To be done

     Representation    25      2 modes -  To be done

     Representation    26      2 modes -  To be done

     Representation    27      2 modes -  To be done

     Representation    28      2 modes -  To be done

     Representation    29      2 modes -  To be done

     Representation    30      2 modes -  To be done

     Representation    31      2 modes -  To be done

     Representation    32      2 modes -  To be done

     Representation    33      2 modes -  To be done

     Representation    34      2 modes -  To be done

     Representation    35      2 modes -  To be done

     Representation    36      2 modes -  To be done

     Representation    37      2 modes -  To be done

     Representation    38      2 modes -  To be done

     Representation    39      2 modes -  To be done

     Representation    40      2 modes -  To be done

     Representation    41      2 modes -  To be done

     Representation    42      2 modes -  To be done

     Representation    43      2 modes -  To be done

     Representation    44      2 modes -  To be done



     Alpha used in Ewald sum =   2.8000
     PHONON       :   3m 1.41s CPU   3m12.89s WALL



     Representation #   1 mode #   1

     Self-consistent Calculation

      iter #   1 total cpu time :   208.9 secs   av.it.:   4.9
      thresh= 1.000E-02 alpha_mix =  0.700 |ddv_scf|^2 =  5.419E-03

      iter #   2 total cpu time :   240.0 secs   av.it.:  11.7
      thresh= 7.362E-03 alpha_mix =  0.700 |ddv_scf|^2 =  1.689E+02

      iter #   3 total cpu time :   274.0 secs   av.it.:  11.2
      thresh= 1.000E-02 alpha_mix =  0.700 |ddv_scf|^2 =  5.266E-02

      iter #   4 total cpu time :   297.8 secs   av.it.:   6.8
      thresh= 1.000E-02 alpha_mix =  0.700 |ddv_scf|^2 =  1.049E-05

      iter #   5 total cpu time :   346.3 secs   av.it.:  13.2
      thresh= 3.238E-04 alpha_mix =  0.700 |ddv_scf|^2 =  3.712E-04

      iter #   6 total cpu time :   364.1 secs   av.it.:   5.3
      thresh= 1.927E-03 alpha_mix =  0.700 |ddv_scf|^2 =  3.559E-03

      iter #   7 total cpu time :   385.0 secs   av.it.:   7.4
      thresh= 5.966E-03 alpha_mix =  0.700 |ddv_scf|^2 =  2.671E-06

      iter #   8 total cpu time :   415.0 secs   av.it.:  11.2
      thresh= 1.634E-04 alpha_mix =  0.700 |ddv_scf|^2 =  3.514E-07

      iter #   9 total cpu time :   447.3 secs   av.it.:  12.0
      thresh= 5.928E-05 alpha_mix =  0.700 |ddv_scf|^2 =  1.010E-05

      iter #  10 total cpu time :   461.4 secs   av.it.:   3.4
      thresh= 3.178E-04 alpha_mix =  0.700 |ddv_scf|^2 =  4.852E-09

     End of self-consistent calculation

     Convergence has been achieved 


     Representation #   2 mode #   2

     Self-consistent Calculation

      iter #   1 total cpu time :   477.8 secs   av.it.:   5.2
      thresh= 1.000E-02 alpha_mix =  0.700 |ddv_scf|^2 =  1.183E-02

      iter #   2 total cpu time :   509.8 secs   av.it.:  11.8
      thresh= 1.000E-02 alpha_mix =  0.700 |ddv_scf|^2 =  3.688E+02

      iter #   3 total cpu time :   541.2 secs   av.it.:  11.9
      thresh= 1.000E-02 alpha_mix =  0.700 |ddv_scf|^2 =  1.154E-01

      iter #   4 total cpu time :   564.6 secs   av.it.:   7.4
      thresh= 1.000E-02 alpha_mix =  0.700 |ddv_scf|^2 =  3.370E-05

      iter #   5 total cpu time :   598.5 secs   av.it.:  12.8
      thresh= 5.805E-04 alpha_mix =  0.700 |ddv_scf|^2 =  7.196E-05

      iter #   6 total cpu time :   629.1 secs   av.it.:  10.2
      thresh= 8.483E-04 alpha_mix =  0.700 |ddv_scf|^2 =  4.080E-02

      iter #   7 total cpu time :   653.4 secs   av.it.:   6.5
      thresh= 1.000E-02 alpha_mix =  0.700 |ddv_scf|^2 =  1.873E-05

      iter #   8 total cpu time :   697.1 secs   av.it.:  10.7
      thresh= 4.327E-04 alpha_mix =  0.700 |ddv_scf|^2 =  1.485E-06

      iter #   9 total cpu time :   729.9 secs   av.it.:  12.0
      thresh= 1.219E-04 alpha_mix =  0.700 |ddv_scf|^2 =  5.218E-05

      iter #  10 total cpu time :   769.3 secs   av.it.:   5.2
      thresh= 7.224E-04 alpha_mix =  0.700 |ddv_scf|^2 =  4.585E-08

      iter #  11 total cpu time :   805.3 secs   av.it.:  11.3
      thresh= 2.141E-05 alpha_mix =  0.700 |ddv_scf|^2 =  1.231E-08

      iter #  12 total cpu time :   835.5 secs   av.it.:  11.3
      thresh= 1.110E-05 alpha_mix =  0.700 |ddv_scf|^2 =  3.482E-10

     End of self-consistent calculation

     Convergence has been achieved 


     Representation #   3 mode #   3

     Self-consistent Calculation

      iter #   1 total cpu time :   853.6 secs   av.it.:   5.3
      thresh= 1.000E-02 alpha_mix =  0.700 |ddv_scf|^2 =  3.647E-02

      iter #   2 total cpu time :   888.4 secs   av.it.:  12.7
      thresh= 1.000E-02 alpha_mix =  0.700 |ddv_scf|^2 =  1.137E+03

      iter #   3 total cpu time :   926.8 secs   av.it.:  12.8
      thresh= 1.000E-02 alpha_mix =  0.700 |ddv_scf|^2 =  3.531E-01

      iter #   4 total cpu time :   965.6 secs   av.it.:   8.3
      thresh= 1.000E-02 alpha_mix =  0.700 |ddv_scf|^2 =  4.839E-05

      iter #   5 total cpu time :  1005.8 secs   av.it.:  13.4
      thresh= 6.956E-04 alpha_mix =  0.700 |ddv_scf|^2 =  3.076E-03

      iter #   6 total cpu time :  1022.0 secs   av.it.:   5.0
      thresh= 5.546E-03 alpha_mix =  0.700 |ddv_scf|^2 =  1.797E-02

      iter #   7 total cpu time :  1048.6 secs   av.it.:   8.0
      thresh= 1.000E-02 alpha_mix =  0.700 |ddv_scf|^2 =  5.997E-06

      iter #   8 total cpu time :  1099.8 secs   av.it.:  12.1
      thresh= 2.449E-04 alpha_mix =  0.700 |ddv_scf|^2 =  3.024E-06

      iter #   9 total cpu time :  1129.8 secs   av.it.:  11.7
      thresh= 1.739E-04 alpha_mix =  0.700 |ddv_scf|^2 =  1.596E-05

      iter #  10 total cpu time :  1147.5 secs   av.it.:   5.5
      thresh= 3.996E-04 alpha_mix =  0.700 |ddv_scf|^2 =  1.948E-08

      iter #  11 total cpu time :  1177.8 secs   av.it.:  10.8
      thresh= 1.396E-05 alpha_mix =  0.700 |ddv_scf|^2 =  1.588E-08

      iter #  12 total cpu time :  1220.4 secs   av.it.:   9.6
      thresh= 1.260E-05 alpha_mix =  0.700 |ddv_scf|^2 =  1.731E-10

     End of self-consistent calculation

     Convergence has been achieved 


     Representation #   4 mode #   4

     Self-consistent Calculation

      iter #   1 total cpu time :  1254.4 secs   av.it.:   5.3
      thresh= 1.000E-02 alpha_mix =  0.700 |ddv_scf|^2 =  3.618E-02

      iter #   2 total cpu time :  1291.8 secs   av.it.:  12.7
      thresh= 1.000E-02 alpha_mix =  0.700 |ddv_scf|^2 =  1.128E+03

      iter #   3 total cpu time :  1326.6 secs   av.it.:  12.8
      thresh= 1.000E-02 alpha_mix =  0.700 |ddv_scf|^2 =  3.528E-01

      iter #   4 total cpu time :  1353.1 secs   av.it.:   8.4
      thresh= 1.000E-02 alpha_mix =  0.700 |ddv_scf|^2 =  1.122E-04

      iter #   5 total cpu time :  1391.2 secs   av.it.:  12.7
      thresh= 1.059E-03 alpha_mix =  0.700 |ddv_scf|^2 =  1.720E-03

      iter #   6 total cpu time :  1415.3 secs   av.it.:   6.2
      thresh= 4.148E-03 alpha_mix =  0.700 |ddv_scf|^2 =  3.114E-02

      iter #   7 total cpu time :  1440.6 secs   av.it.:   8.0
      thresh= 1.000E-02 alpha_mix =  0.700 |ddv_scf|^2 =  9.726E-06

      iter #   8 total cpu time :  1474.1 secs   av.it.:  11.9
      thresh= 3.119E-04 alpha_mix =  0.700 |ddv_scf|^2 =  2.773E-06

      iter #   9 total cpu time :  1507.9 secs   av.it.:  11.9
      thresh= 1.665E-04 alpha_mix =  0.700 |ddv_scf|^2 =  1.724E-05

      iter #  10 total cpu time :  1547.2 secs   av.it.:   5.5
      thresh= 4.152E-04 alpha_mix =  0.700 |ddv_scf|^2 =  1.438E-08

      iter #  11 total cpu time :  1592.4 secs   av.it.:  11.5
      thresh= 1.199E-05 alpha_mix =  0.700 |ddv_scf|^2 =  2.294E-08

      iter #  12 total cpu time :  1622.5 secs   av.it.:   9.8
      thresh= 1.515E-05 alpha_mix =  0.700 |ddv_scf|^2 =  9.522E-11

     End of self-consistent calculation

     Convergence has been achieved 


     Representation #   5 mode #   5

     Self-consistent Calculation

      iter #   1 total cpu time :  1646.7 secs   av.it.:   6.3
      thresh= 1.000E-02 alpha_mix =  0.700 |ddv_scf|^2 =  1.091E-01

      iter #   2 total cpu time :  1687.5 secs   av.it.:  13.7
      thresh= 1.000E-02 alpha_mix =  0.700 |ddv_scf|^2 =  3.400E+03

      iter #   3 total cpu time :  1723.6 secs   av.it.:  13.7
      thresh= 1.000E-02 alpha_mix =  0.700 |ddv_scf|^2 =  1.059E+00

      iter #   4 total cpu time :  1761.4 secs   av.it.:   9.2
      thresh= 1.000E-02 alpha_mix =  0.700 |ddv_scf|^2 =  1.862E-04

      iter #   5 total cpu time :  1796.6 secs   av.it.:  13.2
      thresh= 1.365E-03 alpha_mix =  0.700 |ddv_scf|^2 =  3.247E-04

      iter #   6 total cpu time :  1828.4 secs   av.it.:  11.5
      thresh= 1.802E-03 alpha_mix =  0.700 |ddv_scf|^2 =  1.183E-01

      iter #   7 total cpu time :  1847.5 secs   av.it.:   5.5
      thresh= 1.000E-02 alpha_mix =  0.700 |ddv_scf|^2 =  2.943E-05

      iter #   8 total cpu time :  1881.0 secs   av.it.:  11.9
      thresh= 5.425E-04 alpha_mix =  0.700 |ddv_scf|^2 =  8.301E-06

      iter #   9 total cpu time :  1915.9 secs   av.it.:  11.9
      thresh= 2.881E-04 alpha_mix =  0.700 |ddv_scf|^2 =  9.195E-05

      iter #  10 total cpu time :  1931.9 secs   av.it.:   3.8
      thresh= 9.589E-04 alpha_mix =  0.700 |ddv_scf|^2 =  5.538E-08

      iter #  11 total cpu time :  1972.8 secs   av.it.:  11.2
      thresh= 2.353E-05 alpha_mix =  0.700 |ddv_scf|^2 =  9.081E-09

     End of self-consistent calculation

     Convergence has been achieved 


     Representation #   6 mode #   6

     Self-consistent Calculation

      iter #   1 total cpu time :  1989.1 secs   av.it.:   5.3
      thresh= 1.000E-02 alpha_mix =  0.700 |ddv_scf|^2 =  3.618E-02

      iter #   2 total cpu time :  2021.8 secs   av.it.:  12.7
      thresh= 1.000E-02 alpha_mix =  0.700 |ddv_scf|^2 =  1.128E+03

      iter #   3 total cpu time :  2054.7 secs   av.it.:  12.8
      thresh= 1.000E-02 alpha_mix =  0.700 |ddv_scf|^2 =  3.528E-01

      iter #   4 total cpu time :  2080.6 secs   av.it.:   8.4
      thresh= 1.000E-02 alpha_mix =  0.700 |ddv_scf|^2 =  1.122E-04

      iter #   5 total cpu time :  2120.7 secs   av.it.:  12.7
      thresh= 1.059E-03 alpha_mix =  0.700 |ddv_scf|^2 =  2.200E-03

      iter #   6 total cpu time :  2150.1 secs   av.it.:   5.7
      thresh= 4.691E-03 alpha_mix =  0.700 |ddv_scf|^2 =  2.472E-02

      iter #   7 total cpu time :  2174.2 secs   av.it.:   8.0
      thresh= 1.000E-02 alpha_mix =  0.700 |ddv_scf|^2 =  8.056E-06

      iter #   8 total cpu time :  2205.9 secs   av.it.:  12.1
      thresh= 2.838E-04 alpha_mix =  0.700 |ddv_scf|^2 =  2.723E-06

      iter #   9 total cpu time :  2246.0 secs   av.it.:  11.9
      thresh= 1.650E-04 alpha_mix =  0.700 |ddv_scf|^2 =  1.474E-05

      iter #  10 total cpu time :  2266.5 secs   av.it.:   5.5
      thresh= 3.839E-04 alpha_mix =  0.700 |ddv_scf|^2 =  1.208E-08

      iter #  11 total cpu time :  2311.0 secs   av.it.:  11.4
      thresh= 1.099E-05 alpha_mix =  0.700 |ddv_scf|^2 =  1.861E-08

      iter #  12 total cpu time :  2337.8 secs   av.it.:   9.6
      thresh= 1.364E-05 alpha_mix =  0.700 |ddv_scf|^2 =  8.463E-11

     End of self-consistent calculation

     Convergence has been achieved 


     Representation #   7 mode #   7

     Self-consistent Calculation

      iter #   1 total cpu time :  2357.0 secs   av.it.:   6.2
      thresh= 1.000E-02 alpha_mix =  0.700 |ddv_scf|^2 =  1.066E-01

      iter #   2 total cpu time :  2395.7 secs   av.it.:  13.7
      thresh= 1.000E-02 alpha_mix =  0.700 |ddv_scf|^2 =  3.323E+03

      iter #   3 total cpu time :  2443.1 secs   av.it.:  13.7
      thresh= 1.000E-02 alpha_mix =  0.700 |ddv_scf|^2 =  1.038E+00

      iter #   4 total cpu time :  2468.1 secs   av.it.:   9.2
      thresh= 1.000E-02 alpha_mix =  0.700 |ddv_scf|^2 =  2.842E-04

      iter #   5 total cpu time :  2502.7 secs   av.it.:  12.8
      thresh= 1.686E-03 alpha_mix =  0.700 |ddv_scf|^2 =  4.420E-04

      iter #   6 total cpu time :  2531.6 secs   av.it.:  11.0
      thresh= 2.102E-03 alpha_mix =  0.700 |ddv_scf|^2 =  3.707E-01

      iter #   7 total cpu time :  2555.5 secs   av.it.:   7.7
      thresh= 1.000E-02 alpha_mix =  0.700 |ddv_scf|^2 =  9.823E-05

      iter #   8 total cpu time :  2585.7 secs   av.it.:  11.0
      thresh= 9.911E-04 alpha_mix =  0.700 |ddv_scf|^2 =  9.599E-06

      iter #   9 total cpu time :  2618.6 secs   av.it.:  12.1
      thresh= 3.098E-04 alpha_mix =  0.700 |ddv_scf|^2 =  1.488E-04

      iter #  10 total cpu time :  2633.9 secs   av.it.:   4.4
      thresh= 1.220E-03 alpha_mix =  0.700 |ddv_scf|^2 =  1.538E-07

      iter #  11 total cpu time :  2666.9 secs   av.it.:  11.8
      thresh= 3.922E-05 alpha_mix =  0.700 |ddv_scf|^2 =  1.023E-07

      iter #  12 total cpu time :  2702.0 secs   av.it.:  11.1
      thresh= 3.198E-05 alpha_mix =  0.700 |ddv_scf|^2 =  4.791E-10

     End of self-consistent calculation

     Convergence has been achieved 


     Representation #   8 mode #   8

     Self-consistent Calculation

      iter #   1 total cpu time :  2718.6 secs   av.it.:   5.1
      thresh= 1.000E-02 alpha_mix =  0.700 |ddv_scf|^2 =  3.623E-02

      iter #   2 total cpu time :  2754.4 secs   av.it.:  12.7
      thresh= 1.000E-02 alpha_mix =  0.700 |ddv_scf|^2 =  1.129E+03

      iter #   3 total cpu time :  2793.6 secs   av.it.:  12.8
      thresh= 1.000E-02 alpha_mix =  0.700 |ddv_scf|^2 =  3.533E-01

      iter #   4 total cpu time :  2817.2 secs   av.it.:   8.4
      thresh= 1.000E-02 alpha_mix =  0.700 |ddv_scf|^2 =  1.283E-04

      iter #   5 total cpu time :  2849.0 secs   av.it.:  12.5
      thresh= 1.132E-03 alpha_mix =  0.700 |ddv_scf|^2 =  5.450E-04

      iter #   6 total cpu time :  2888.6 secs   av.it.:   8.6
      thresh= 2.335E-03 alpha_mix =  0.700 |ddv_scf|^2 =  8.632E-02

      iter #   7 total cpu time :  2910.8 secs   av.it.:   7.9
      thresh= 1.000E-02 alpha_mix =  0.700 |ddv_scf|^2 =  2.687E-05

      iter #   8 total cpu time :  2939.9 secs   av.it.:  11.1
      thresh= 5.183E-04 alpha_mix =  0.700 |ddv_scf|^2 =  2.638E-06

      iter #   9 total cpu time :  2978.1 secs   av.it.:  12.2
      thresh= 1.624E-04 alpha_mix =  0.700 |ddv_scf|^2 =  1.524E-05

      iter #  10 total cpu time :  2995.9 secs   av.it.:   5.6
      thresh= 3.903E-04 alpha_mix =  0.700 |ddv_scf|^2 =  4.689E-08

      iter #  11 total cpu time :  3026.1 secs   av.it.:  11.3
      thresh= 2.165E-05 alpha_mix =  0.700 |ddv_scf|^2 =  3.834E-08

      iter #  12 total cpu time :  3054.3 secs   av.it.:  10.4
      thresh= 1.958E-05 alpha_mix =  0.700 |ddv_scf|^2 =  4.122E-11

     End of self-consistent calculation

     Convergence has been achieved 


     Representation #   9 mode #   9

     Self-consistent Calculation

      iter #   1 total cpu time :  3079.8 secs   av.it.:   9.4
      thresh= 1.000E-02 alpha_mix =  0.700 |ddv_scf|^2 =  4.409E+00

      iter #   2 total cpu time :  3127.5 secs   av.it.:  17.0
      thresh= 1.000E-02 alpha_mix =  0.700 |ddv_scf|^2 =  1.374E+05

      iter #   3 total cpu time :  3171.9 secs   av.it.:  17.0
      thresh= 1.000E-02 alpha_mix =  0.700 |ddv_scf|^2 =  4.260E+01

      iter #   4 total cpu time :  3207.4 secs   av.it.:  11.9
      thresh= 1.000E-02 alpha_mix =  0.700 |ddv_scf|^2 =  4.718E-03

      iter #   5 total cpu time :  3253.2 secs   av.it.:  13.2
      thresh= 6.868E-03 alpha_mix =  0.700 |ddv_scf|^2 =  1.855E-02

      iter #   6 total cpu time :  3284.0 secs   av.it.:  11.8
      thresh= 1.000E-02 alpha_mix =  0.700 |ddv_scf|^2 =  4.512E+00

      iter #   7 total cpu time :  3310.7 secs   av.it.:   9.1
      thresh= 1.000E-02 alpha_mix =  0.700 |ddv_scf|^2 =  1.697E-03

      iter #   8 total cpu time :  3341.7 secs   av.it.:  11.2
      thresh= 4.120E-03 alpha_mix =  0.700 |ddv_scf|^2 =  2.566E-04

      iter #   9 total cpu time :  3378.1 secs   av.it.:  11.9
      thresh= 1.602E-03 alpha_mix =  0.700 |ddv_scf|^2 =  4.546E-04

      iter #  10 total cpu time :  3397.9 secs   av.it.:   6.2
      thresh= 2.132E-03 alpha_mix =  0.700 |ddv_scf|^2 =  4.520E-06

      iter #  11 total cpu time :  3427.6 secs   av.it.:  10.4
      thresh= 2.126E-04 alpha_mix =  0.700 |ddv_scf|^2 =  6.158E-07

      iter #  12 total cpu time :  3466.3 secs   av.it.:  11.1
      thresh= 7.847E-05 alpha_mix =  0.700 |ddv_scf|^2 =  8.917E-09

     End of self-consistent calculation

     Convergence has been achieved 


     Representation #  10 mode #  10

     Self-consistent Calculation

      iter #   1 total cpu time :  3486.2 secs   av.it.:   6.3
      thresh= 1.000E-02 alpha_mix =  0.700 |ddv_scf|^2 =  1.038E-01

      iter #   2 total cpu time :  3523.8 secs   av.it.:  13.6
      thresh= 1.000E-02 alpha_mix =  0.700 |ddv_scf|^2 =  3.235E+03

      iter #   3 total cpu time :  3558.3 secs   av.it.:  13.7
      thresh= 1.000E-02 alpha_mix =  0.700 |ddv_scf|^2 =  1.007E+00

      iter #   4 total cpu time :  3584.9 secs   av.it.:   9.2
      thresh= 1.000E-02 alpha_mix =  0.700 |ddv_scf|^2 =  1.760E-04

      iter #   5 total cpu time :  3619.5 secs   av.it.:  13.2
      thresh= 1.326E-03 alpha_mix =  0.700 |ddv_scf|^2 =  5.476E-04

      iter #   6 total cpu time :  3649.5 secs   av.it.:  10.6
      thresh= 2.340E-03 alpha_mix =  0.700 |ddv_scf|^2 =  3.903E-01

      iter #   7 total cpu time :  3678.7 secs   av.it.:   8.0
      thresh= 1.000E-02 alpha_mix =  0.700 |ddv_scf|^2 =  1.026E-04

      iter #   8 total cpu time :  3711.0 secs   av.it.:  11.0
      thresh= 1.013E-03 alpha_mix =  0.700 |ddv_scf|^2 =  1.101E-05

      iter #   9 total cpu time :  3743.9 secs   av.it.:  12.0
      thresh= 3.318E-04 alpha_mix =  0.700 |ddv_scf|^2 =  3.177E-04

      iter #  10 total cpu time :  3762.6 secs   av.it.:   4.0
      thresh= 1.782E-03 alpha_mix =  0.700 |ddv_scf|^2 =  1.767E-07

      iter #  11 total cpu time :  3797.7 secs   av.it.:  11.7
      thresh= 4.204E-05 alpha_mix =  0.700 |ddv_scf|^2 =  1.166E-07

      iter #  12 total cpu time :  3829.3 secs   av.it.:  11.1
      thresh= 3.415E-05 alpha_mix =  0.700 |ddv_scf|^2 =  1.367E-09

     End of self-consistent calculation

     Convergence has been achieved 


     Representation #  11 mode #  11

     Self-consistent Calculation

      iter #   1 total cpu time :  3852.4 secs   av.it.:   5.2
      thresh= 1.000E-02 alpha_mix =  0.700 |ddv_scf|^2 =  3.664E-02

      iter #   2 total cpu time :  3890.1 secs   av.it.:  12.7
      thresh= 1.000E-02 alpha_mix =  0.700 |ddv_scf|^2 =  1.142E+03

      iter #   3 total cpu time :  3930.9 secs   av.it.:  12.8
      thresh= 1.000E-02 alpha_mix =  0.700 |ddv_scf|^2 =  3.541E-01

      iter #   4 total cpu time :  3964.2 secs   av.it.:   8.3
      thresh= 1.000E-02 alpha_mix =  0.700 |ddv_scf|^2 =  4.740E-05

      iter #   5 total cpu time :  4014.5 secs   av.it.:  13.4
      thresh= 6.885E-04 alpha_mix =  0.700 |ddv_scf|^2 =  8.959E-04

      iter #   6 total cpu time :  4046.3 secs   av.it.:   7.6
      thresh= 2.993E-03 alpha_mix =  0.700 |ddv_scf|^2 =  5.996E-02

      iter #   7 total cpu time :  4068.9 secs   av.it.:   8.0
      thresh= 1.000E-02 alpha_mix =  0.700 |ddv_scf|^2 =  1.952E-05

      iter #   8 total cpu time :  4104.4 secs   av.it.:  11.3
      thresh= 4.419E-04 alpha_mix =  0.700 |ddv_scf|^2 =  3.273E-06

      iter #   9 total cpu time :  4137.8 secs   av.it.:  11.9
      thresh= 1.809E-04 alpha_mix =  0.700 |ddv_scf|^2 =  2.443E-05

      iter #  10 total cpu time :  4158.4 secs   av.it.:   6.0
      thresh= 4.942E-04 alpha_mix =  0.700 |ddv_scf|^2 =  3.390E-08

      iter #  11 total cpu time :  4191.8 secs   av.it.:  11.4
      thresh= 1.841E-05 alpha_mix =  0.700 |ddv_scf|^2 =  3.472E-08

      iter #  12 total cpu time :  4227.3 secs   av.it.:  10.3
      thresh= 1.863E-05 alpha_mix =  0.700 |ddv_scf|^2 =  2.647E-10

     End of self-consistent calculation

     Convergence has been achieved 


     Representation #  12 mode #  12

     Self-consistent Calculation

      iter #   1 total cpu time :  4249.9 secs   av.it.:   6.1
      thresh= 1.000E-02 alpha_mix =  0.700 |ddv_scf|^2 =  9.729E-02

      iter #   2 total cpu time :  4288.8 secs   av.it.:  13.6
      thresh= 1.000E-02 alpha_mix =  0.700 |ddv_scf|^2 =  3.032E+03

      iter #   3 total cpu time :  4329.5 secs   av.it.:  13.6
      thresh= 1.000E-02 alpha_mix =  0.700 |ddv_scf|^2 =  9.472E-01

      iter #   4 total cpu time :  4357.9 secs   av.it.:   9.2
      thresh= 1.000E-02 alpha_mix =  0.700 |ddv_scf|^2 =  2.590E-04

      iter #   5 total cpu time :  4392.0 secs   av.it.:  12.8
      thresh= 1.609E-03 alpha_mix =  0.700 |ddv_scf|^2 =  3.011E-04

      iter #   6 total cpu time :  4435.0 secs   av.it.:  11.5
      thresh= 1.735E-03 alpha_mix =  0.700 |ddv_scf|^2 =  2.256E-01

      iter #   7 total cpu time :  4457.2 secs   av.it.:   6.7
      thresh= 1.000E-02 alpha_mix =  0.700 |ddv_scf|^2 =  5.785E-05

      iter #   8 total cpu time :  4489.5 secs   av.it.:  11.3
      thresh= 7.606E-04 alpha_mix =  0.700 |ddv_scf|^2 =  8.043E-06

      iter #   9 total cpu time :  4528.2 secs   av.it.:  12.1
      thresh= 2.836E-04 alpha_mix =  0.700 |ddv_scf|^2 =  6.283E-05

      iter #  10 total cpu time :  4553.5 secs   av.it.:   4.3
      thresh= 7.926E-04 alpha_mix =  0.700 |ddv_scf|^2 =  9.885E-08

      iter #  11 total cpu time :  4585.3 secs   av.it.:  11.5
      thresh= 3.144E-05 alpha_mix =  0.700 |ddv_scf|^2 =  3.690E-08

      iter #  12 total cpu time :  4618.6 secs   av.it.:  11.3
      thresh= 1.921E-05 alpha_mix =  0.700 |ddv_scf|^2 =  2.482E-10

     End of self-consistent calculation

     Convergence has been achieved 


     Representation #  13 mode #  13

     Self-consistent Calculation

      iter #   1 total cpu time :  4638.1 secs   av.it.:   5.2
      thresh= 1.000E-02 alpha_mix =  0.700 |ddv_scf|^2 =  3.664E-02

      iter #   2 total cpu time :  4685.4 secs   av.it.:  12.7
      thresh= 1.000E-02 alpha_mix =  0.700 |ddv_scf|^2 =  1.142E+03

      iter #   3 total cpu time :  4721.4 secs   av.it.:  12.8
      thresh= 1.000E-02 alpha_mix =  0.700 |ddv_scf|^2 =  3.541E-01

      iter #   4 total cpu time :  4745.5 secs   av.it.:   8.3
      thresh= 1.000E-02 alpha_mix =  0.700 |ddv_scf|^2 =  4.744E-05

      iter #   5 total cpu time :  4800.6 secs   av.it.:  13.4
      thresh= 6.888E-04 alpha_mix =  0.700 |ddv_scf|^2 =  1.231E-03

      iter #   6 total cpu time :  4823.8 secs   av.it.:   6.9
      thresh= 3.509E-03 alpha_mix =  0.700 |ddv_scf|^2 =  4.487E-02

      iter #   7 total cpu time :  4849.9 secs   av.it.:   8.0
      thresh= 1.000E-02 alpha_mix =  0.700 |ddv_scf|^2 =  1.512E-05

      iter #   8 total cpu time :  4881.6 secs   av.it.:  11.5
      thresh= 3.888E-04 alpha_mix =  0.700 |ddv_scf|^2 =  3.238E-06

      iter #   9 total cpu time :  4919.4 secs   av.it.:  11.8
      thresh= 1.799E-04 alpha_mix =  0.700 |ddv_scf|^2 =  1.928E-05

      iter #  10 total cpu time :  4941.1 secs   av.it.:   6.0
      thresh= 4.391E-04 alpha_mix =  0.700 |ddv_scf|^2 =  3.133E-08

      iter #  11 total cpu time :  4974.8 secs   av.it.:  11.2
      thresh= 1.770E-05 alpha_mix =  0.700 |ddv_scf|^2 =  2.821E-08

      iter #  12 total cpu time :  5006.1 secs   av.it.:  10.1
      thresh= 1.680E-05 alpha_mix =  0.700 |ddv_scf|^2 =  2.286E-10

     End of self-consistent calculation

     Convergence has been achieved 


     Representation #  14 mode #  14

     Self-consistent Calculation

      iter #   1 total cpu time :  5026.9 secs   av.it.:   6.6
      thresh= 1.000E-02 alpha_mix =  0.700 |ddv_scf|^2 =  3.230E-01

      iter #   2 total cpu time :  5067.4 secs   av.it.:  14.6
      thresh= 1.000E-02 alpha_mix =  0.700 |ddv_scf|^2 =  1.007E+04

      iter #   3 total cpu time :  5105.7 secs   av.it.:  14.7
      thresh= 1.000E-02 alpha_mix =  0.700 |ddv_scf|^2 =  3.147E+00

      iter #   4 total cpu time :  5136.3 secs   av.it.:   9.8
      thresh= 1.000E-02 alpha_mix =  0.700 |ddv_scf|^2 =  8.857E-04

      iter #   5 total cpu time :  5172.3 secs   av.it.:  12.4
      thresh= 2.976E-03 alpha_mix =  0.700 |ddv_scf|^2 =  1.016E-03

      iter #   6 total cpu time :  5206.8 secs   av.it.:  11.5
      thresh= 3.188E-03 alpha_mix =  0.700 |ddv_scf|^2 =  3.236E-01

      iter #   7 total cpu time :  5228.4 secs   av.it.:   6.9
      thresh= 1.000E-02 alpha_mix =  0.700 |ddv_scf|^2 =  1.172E-04

      iter #   8 total cpu time :  5259.5 secs   av.it.:  11.1
      thresh= 1.083E-03 alpha_mix =  0.700 |ddv_scf|^2 =  1.018E-05

      iter #   9 total cpu time :  5292.0 secs   av.it.:  12.2
      thresh= 3.191E-04 alpha_mix =  0.700 |ddv_scf|^2 =  1.625E-05

      iter #  10 total cpu time :  5312.5 secs   av.it.:   6.0
      thresh= 4.031E-04 alpha_mix =  0.700 |ddv_scf|^2 =  4.230E-07

      iter #  11 total cpu time :  5342.2 secs   av.it.:  10.0
      thresh= 6.504E-05 alpha_mix =  0.700 |ddv_scf|^2 =  2.919E-08

      iter #  12 total cpu time :  5377.8 secs   av.it.:  11.3
      thresh= 1.709E-05 alpha_mix =  0.700 |ddv_scf|^2 =  7.534E-11

     End of self-consistent calculation

     Convergence has been achieved 


     Representation #  15 mode #  15

     Self-consistent Calculation

      iter #   1 total cpu time :  5411.7 secs   av.it.:   5.1
      thresh= 1.000E-02 alpha_mix =  0.700 |ddv_scf|^2 =  3.623E-02

      iter #   2 total cpu time :  5448.5 secs   av.it.:  12.7
      thresh= 1.000E-02 alpha_mix =  0.700 |ddv_scf|^2 =  1.129E+03

      iter #   3 total cpu time :  5482.9 secs   av.it.:  12.8
      thresh= 1.000E-02 alpha_mix =  0.700 |ddv_scf|^2 =  3.533E-01

      iter #   4 total cpu time :  5507.8 secs   av.it.:   8.4
      thresh= 1.000E-02 alpha_mix =  0.700 |ddv_scf|^2 =  1.282E-04

      iter #   5 total cpu time :  5552.3 secs   av.it.:  12.5
      thresh= 1.132E-03 alpha_mix =  0.700 |ddv_scf|^2 =  3.392E-04

      iter #   6 total cpu time :  5580.9 secs   av.it.:   9.6
      thresh= 1.842E-03 alpha_mix =  0.700 |ddv_scf|^2 =  1.177E-01

      iter #   7 total cpu time :  5620.9 secs   av.it.:   7.7
      thresh= 1.000E-02 alpha_mix =  0.700 |ddv_scf|^2 =  3.615E-05

      iter #   8 total cpu time :  5650.4 secs   av.it.:  10.9
      thresh= 6.012E-04 alpha_mix =  0.700 |ddv_scf|^2 =  2.631E-06

      iter #   9 total cpu time :  5684.0 secs   av.it.:  12.2
      thresh= 1.622E-04 alpha_mix =  0.700 |ddv_scf|^2 =  1.552E-05

      iter #  10 total cpu time :  5710.6 secs   av.it.:   5.6
      thresh= 3.939E-04 alpha_mix =  0.700 |ddv_scf|^2 =  6.927E-08

      iter #  11 total cpu time :  5749.4 secs   av.it.:  11.2
      thresh= 2.632E-05 alpha_mix =  0.700 |ddv_scf|^2 =  3.988E-08

      iter #  12 total cpu time :  5778.6 secs   av.it.:  10.6
      thresh= 1.997E-05 alpha_mix =  0.700 |ddv_scf|^2 =  3.923E-11

     End of self-consistent calculation

     Convergence has been achieved 


     Representation #  16 mode #  16

     Self-consistent Calculation

      iter #   1 total cpu time :  5797.7 secs   av.it.:   5.3
      thresh= 1.000E-02 alpha_mix =  0.700 |ddv_scf|^2 =  3.647E-02

      iter #   2 total cpu time :  5835.0 secs   av.it.:  12.7
      thresh= 1.000E-02 alpha_mix =  0.700 |ddv_scf|^2 =  1.137E+03

      iter #   3 total cpu time :  5874.5 secs   av.it.:  12.8
      thresh= 1.000E-02 alpha_mix =  0.700 |ddv_scf|^2 =  3.531E-01

      iter #   4 total cpu time :  5902.4 secs   av.it.:   8.3
      thresh= 1.000E-02 alpha_mix =  0.700 |ddv_scf|^2 =  4.833E-05

      iter #   5 total cpu time :  5947.0 secs   av.it.:  13.4
      thresh= 6.952E-04 alpha_mix =  0.700 |ddv_scf|^2 =  2.441E-03

      iter #   6 total cpu time :  5965.0 secs   av.it.:   5.4
      thresh= 4.941E-03 alpha_mix =  0.700 |ddv_scf|^2 =  2.248E-02

      iter #   7 total cpu time :  5989.8 secs   av.it.:   8.0
      thresh= 1.000E-02 alpha_mix =  0.700 |ddv_scf|^2 =  7.122E-06

      iter #   8 total cpu time :  6025.0 secs   av.it.:  12.0
      thresh= 2.669E-04 alpha_mix =  0.700 |ddv_scf|^2 =  3.080E-06

      iter #   9 total cpu time :  6071.2 secs   av.it.:  11.7
      thresh= 1.755E-04 alpha_mix =  0.700 |ddv_scf|^2 =  1.930E-05

      iter #  10 total cpu time :  6100.0 secs   av.it.:   5.4
      thresh= 4.394E-04 alpha_mix =  0.700 |ddv_scf|^2 =  2.108E-08

      iter #  11 total cpu time :  6132.0 secs   av.it.:  11.0
      thresh= 1.452E-05 alpha_mix =  0.700 |ddv_scf|^2 =  1.917E-08

      iter #  12 total cpu time :  6167.5 secs   av.it.:   9.7
      thresh= 1.385E-05 alpha_mix =  0.700 |ddv_scf|^2 =  2.020E-10

     End of self-consistent calculation

     Convergence has been achieved 


     Representation #  17 mode #  17

     Self-consistent Calculation

      iter #   1 total cpu time :  6185.5 secs   av.it.:   4.8
      thresh= 1.000E-02 alpha_mix =  0.700 |ddv_scf|^2 =  2.481E-03

      iter #   2 total cpu time :  6218.4 secs   av.it.:  11.7
      thresh= 4.981E-03 alpha_mix =  0.700 |ddv_scf|^2 =  7.731E+01

      iter #   3 total cpu time :  6263.6 secs   av.it.:  10.6
      thresh= 1.000E-02 alpha_mix =  0.700 |ddv_scf|^2 =  2.424E-02

      iter #   4 total cpu time :  6288.1 secs   av.it.:   6.3
      thresh= 1.000E-02 alpha_mix =  0.700 |ddv_scf|^2 =  8.640E-06

      iter #   5 total cpu time :  6329.4 secs   av.it.:  12.8
      thresh= 2.939E-04 alpha_mix =  0.700 |ddv_scf|^2 =  1.419E-03

      iter #   6 total cpu time :  6347.5 secs   av.it.:   3.5
      thresh= 3.767E-03 alpha_mix =  0.700 |ddv_scf|^2 =  2.438E-04

      iter #   7 total cpu time :  6387.9 secs   av.it.:   8.8
      thresh= 1.561E-03 alpha_mix =  0.700 |ddv_scf|^2 =  5.904E-07

      iter #   8 total cpu time :  6420.0 secs   av.it.:  11.9
      thresh= 7.684E-05 alpha_mix =  0.700 |ddv_scf|^2 =  8.361E-08

      iter #   9 total cpu time :  6460.4 secs   av.it.:  12.5
      thresh= 2.891E-05 alpha_mix =  0.700 |ddv_scf|^2 =  2.594E-06

      iter #  10 total cpu time :  6497.5 secs   av.it.:   5.1
      thresh= 1.611E-04 alpha_mix =  0.700 |ddv_scf|^2 =  2.488E-09

     End of self-consistent calculation

     Convergence has been achieved 


     Representation #  18 mode #  18

     Self-consistent Calculation

      iter #   1 total cpu time :  6513.3 secs   av.it.:   4.5
      thresh= 1.000E-02 alpha_mix =  0.700 |ddv_scf|^2 =  1.221E-04

      iter #   2 total cpu time :  6550.8 secs   av.it.:  11.8
      thresh= 1.105E-03 alpha_mix =  0.700 |ddv_scf|^2 =  3.805E+00

      iter #   3 total cpu time :  6585.3 secs   av.it.:   8.0
      thresh= 1.000E-02 alpha_mix =  0.700 |ddv_scf|^2 =  1.170E-03

      iter #   4 total cpu time :  6604.7 secs   av.it.:   6.4
      thresh= 3.420E-03 alpha_mix =  0.700 |ddv_scf|^2 =  1.229E-07

      iter #   5 total cpu time :  6644.3 secs   av.it.:  13.8
      thresh= 3.505E-05 alpha_mix =  0.700 |ddv_scf|^2 =  7.634E-06

      iter #   6 total cpu time :  6666.2 secs   av.it.:   5.5
      thresh= 2.763E-04 alpha_mix =  0.700 |ddv_scf|^2 =  7.957E-05

      iter #   7 total cpu time :  6703.2 secs   av.it.:   7.4
      thresh= 8.920E-04 alpha_mix =  0.700 |ddv_scf|^2 =  8.700E-08

      iter #   8 total cpu time :  6743.9 secs   av.it.:  11.2
      thresh= 2.950E-05 alpha_mix =  0.700 |ddv_scf|^2 =  1.223E-08

      iter #   9 total cpu time :  6792.3 secs   av.it.:  12.3
      thresh= 1.106E-05 alpha_mix =  0.700 |ddv_scf|^2 =  1.151E-05

      iter #  10 total cpu time :  6808.8 secs   av.it.:   3.8
      thresh= 3.393E-04 alpha_mix =  0.700 |ddv_scf|^2 =  2.802E-09

     End of self-consistent calculation

     Convergence has been achieved 


     Representation #  19 mode #  19

     Self-consistent Calculation

      iter #   1 total cpu time :  6831.1 secs   av.it.:   3.7
      thresh= 1.000E-02 alpha_mix =  0.700 |ddv_scf|^2 =  7.900E-10

     End of self-consistent calculation

     Convergence has been achieved 


     Representation #  20 mode #  20

     Self-consistent Calculation

      iter #   1 total cpu time :  6856.8 secs   av.it.:   3.6
      thresh= 1.000E-02 alpha_mix =  0.700 |ddv_scf|^2 =  7.140E-10

     End of self-consistent calculation

     Convergence has been achieved 


     Representation #  21 mode #  21

     Self-consistent Calculation

      iter #   1 total cpu time :  6890.6 secs   av.it.:   3.7
      thresh= 1.000E-02 alpha_mix =  0.700 |ddv_scf|^2 =  7.900E-10

     End of self-consistent calculation

     Convergence has been achieved 


     Representation #  22 mode #  22

     Self-consistent Calculation

      iter #   1 total cpu time :  6926.8 secs   av.it.:   3.6
      thresh= 1.000E-02 alpha_mix =  0.700 |ddv_scf|^2 =  7.140E-10

     End of self-consistent calculation

     Convergence has been achieved 


     Representation #  23 modes #  23  24

     Self-consistent Calculation

      iter #   1 total cpu time :  6965.9 secs   av.it.:   4.1
      thresh= 1.000E-02 alpha_mix =  0.700 |ddv_scf|^2 =  3.366E-09

     End of self-consistent calculation

     Convergence has been achieved 


     Representation #  24 modes #  25  26

     Self-consistent Calculation

      iter #   1 total cpu time :  7005.5 secs   av.it.:   4.2
      thresh= 1.000E-02 alpha_mix =  0.700 |ddv_scf|^2 =  3.761E-09

     End of self-consistent calculation

     Convergence has been achieved 


     Representation #  25 modes #  27  28

     Self-consistent Calculation

      iter #   1 total cpu time :  7048.4 secs   av.it.:   4.1
      thresh= 1.000E-02 alpha_mix =  0.700 |ddv_scf|^2 =  1.651E-09

     End of self-consistent calculation

     Convergence has been achieved 


     Representation #  26 modes #  29  30

     Self-consistent Calculation

      iter #   1 total cpu time :  7085.0 secs   av.it.:   4.3
      thresh= 1.000E-02 alpha_mix =  0.700 |ddv_scf|^2 =  4.130E-09

     End of self-consistent calculation

     Convergence has been achieved 


     Representation #  27 modes #  31  32

     Self-consistent Calculation

      iter #   1 total cpu time :  7129.6 secs   av.it.:   4.4
      thresh= 1.000E-02 alpha_mix =  0.700 |ddv_scf|^2 =  5.021E-09

     End of self-consistent calculation

     Convergence has been achieved 


     Representation #  28 modes #  33  34

     Self-consistent Calculation

      iter #   1 total cpu time :  7169.1 secs   av.it.:   4.0
      thresh= 1.000E-02 alpha_mix =  0.700 |ddv_scf|^2 =  1.602E-09

     End of self-consistent calculation

     Convergence has been achieved 


     Representation #  29 modes #  35  36

     Self-consistent Calculation

      iter #   1 total cpu time :  7211.1 secs   av.it.:   4.4
      thresh= 1.000E-02 alpha_mix =  0.700 |ddv_scf|^2 =  4.478E-09

     End of self-consistent calculation

     Convergence has been achieved 


     Representation #  30 modes #  37  38

     Self-consistent Calculation

      iter #   1 total cpu time :  7256.4 secs   av.it.:   4.0
      thresh= 1.000E-02 alpha_mix =  0.700 |ddv_scf|^2 =  3.420E-09

     End of self-consistent calculation

     Convergence has been achieved 


     Representation #  31 modes #  39  40

     Self-consistent Calculation

      iter #   1 total cpu time :  7298.5 secs   av.it.:   4.3
      thresh= 1.000E-02 alpha_mix =  0.700 |ddv_scf|^2 =  4.130E-09

     End of self-consistent calculation

     Convergence has been achieved 


     Representation #  32 modes #  41  42

     Self-consistent Calculation

      iter #   1 total cpu time :  7342.0 secs   av.it.:   4.5
      thresh= 1.000E-02 alpha_mix =  0.700 |ddv_scf|^2 =  2.508E-09

     End of self-consistent calculation

     Convergence has been achieved 


     Representation #  33 modes #  43  44

     Self-consistent Calculation

      iter #   1 total cpu time :  7380.2 secs   av.it.:   4.1
      thresh= 1.000E-02 alpha_mix =  0.700 |ddv_scf|^2 =  1.642E-09

     End of self-consistent calculation

     Convergence has been achieved 


     Representation #  34 modes #  45  46

     Self-consistent Calculation

      iter #   1 total cpu time :  7411.9 secs   av.it.:   4.0
      thresh= 1.000E-02 alpha_mix =  0.700 |ddv_scf|^2 =  3.420E-09

     End of self-consistent calculation

     Convergence has been achieved 


     Representation #  35 modes #  47  48

     Self-consistent Calculation

      iter #   1 total cpu time :  7454.4 secs   av.it.:   4.1
      thresh= 1.000E-02 alpha_mix =  0.700 |ddv_scf|^2 =  1.819E-09

     End of self-consistent calculation

     Convergence has been achieved 


     Representation #  36 modes #  49  50

     Self-consistent Calculation

      iter #   1 total cpu time :  7492.1 secs   av.it.:   4.1
      thresh= 1.000E-02 alpha_mix =  0.700 |ddv_scf|^2 =  3.366E-09

     End of self-consistent calculation

     Convergence has been achieved 


     Representation #  37 modes #  51  52

     Self-consistent Calculation

      iter #   1 total cpu time :  7525.5 secs   av.it.:   4.1
      thresh= 1.000E-02 alpha_mix =  0.700 |ddv_scf|^2 =  1.773E-09

     End of self-consistent calculation

     Convergence has been achieved 


     Representation #  38 modes #  53  54

     Self-consistent Calculation

      iter #   1 total cpu time :  7557.0 secs   av.it.:   4.1
      thresh= 1.000E-02 alpha_mix =  0.700 |ddv_scf|^2 =  1.774E-09

     End of self-consistent calculation

     Convergence has been achieved 


     Representation #  39 modes #  55  56

     Self-consistent Calculation

      iter #   1 total cpu time :  7593.7 secs   av.it.:   4.1
      thresh= 1.000E-02 alpha_mix =  0.700 |ddv_scf|^2 =  3.902E-09

     End of self-consistent calculation

     Convergence has been achieved 


     Representation #  40 modes #  57  58

     Self-consistent Calculation

      iter #   1 total cpu time :  7650.3 secs   av.it.:   7.7
      thresh= 1.000E-02 alpha_mix =  0.700 |ddv_scf|^2 =  1.655E-07

      iter #   2 total cpu time :  7736.7 secs   av.it.:  16.0
      thresh= 4.068E-05 alpha_mix =  0.700 |ddv_scf|^2 =  3.454E-08

      iter #   3 total cpu time :  7821.1 secs   av.it.:  15.7
      thresh= 1.858E-05 alpha_mix =  0.700 |ddv_scf|^2 =  2.385E-11

     End of self-consistent calculation

     Convergence has been achieved 


     Representation #  41 modes #  59  60

     Self-consistent Calculation

      iter #   1 total cpu time :  7852.4 secs   av.it.:   4.2
      thresh= 1.000E-02 alpha_mix =  0.700 |ddv_scf|^2 =  3.761E-09

     End of self-consistent calculation

     Convergence has been achieved 


     Representation #  42 modes #  61  62

     Self-consistent Calculation

      iter #   1 total cpu time :  7889.5 secs   av.it.:   4.1
      thresh= 1.000E-02 alpha_mix =  0.700 |ddv_scf|^2 =  3.821E-09

     End of self-consistent calculation

     Convergence has been achieved 


     Representation #  43 modes #  63  64

     Self-consistent Calculation

      iter #   1 total cpu time :  7924.6 secs   av.it.:   4.1
      thresh= 1.000E-02 alpha_mix =  0.700 |ddv_scf|^2 =  2.073E-09

     End of self-consistent calculation

     Convergence has been achieved 


     Representation #  44 modes #  65  66

     Self-consistent Calculation

      iter #   1 total cpu time :  7966.1 secs   av.it.:   4.0
      thresh= 1.000E-02 alpha_mix =  0.700 |ddv_scf|^2 =  1.492E-09

     End of self-consistent calculation

     Convergence has been achieved 
 
     Number of q in the star =    2
     List of q in the star:
          1   0.000000000   0.000000000   0.132838614
          2   0.000000000   0.000000000  -0.132838614

     Diagonalizing the dynamical matrix

     q = (    0.000000000   0.000000000   0.132838614 ) 

 **************************************************************************
     freq (    1) =    -109.275208 [THz] =   -3645.028587 [cm-1]
     freq (    2) =    -109.275208 [THz] =   -3645.028587 [cm-1]
     freq (    3) =     -96.387364 [THz] =   -3215.136388 [cm-1]
     freq (    4) =     -96.387364 [THz] =   -3215.136388 [cm-1]
     freq (    5) =     -89.024271 [THz] =   -2969.530037 [cm-1]
     freq (    6) =     -89.024271 [THz] =   -2969.530037 [cm-1]
     freq (    7) =     -85.973217 [THz] =   -2867.757837 [cm-1]
     freq (    8) =     -85.973217 [THz] =   -2867.757837 [cm-1]
     freq (    9) =     -81.551157 [THz] =   -2720.253780 [cm-1]
     freq (   10) =     -81.551157 [THz] =   -2720.253780 [cm-1]
     freq (   11) =     -61.833326 [THz] =   -2062.537751 [cm-1]
     freq (   12) =     -61.833326 [THz] =   -2062.537751 [cm-1]
     freq (   13) =     -53.214459 [THz] =   -1775.043287 [cm-1]
     freq (   14) =     -53.214459 [THz] =   -1775.043287 [cm-1]
     freq (   15) =     -50.225892 [THz] =   -1675.355436 [cm-1]
     freq (   16) =     -50.225892 [THz] =   -1675.355436 [cm-1]
     freq (   17) =     -41.891452 [THz] =   -1397.348434 [cm-1]
     freq (   18) =     -41.891452 [THz] =   -1397.348434 [cm-1]
     freq (   19) =     -41.741868 [THz] =   -1392.358831 [cm-1]
     freq (   20) =     -41.134213 [THz] =   -1372.089662 [cm-1]
     freq (   21) =     -41.134213 [THz] =   -1372.089662 [cm-1]
     freq (   22) =     -40.282254 [THz] =   -1343.671355 [cm-1]
     freq (   23) =     -28.071498 [THz] =    -936.364378 [cm-1]
     freq (   24) =     -28.071498 [THz] =    -936.364378 [cm-1]
     freq (   25) =     -23.057635 [THz] =    -769.119907 [cm-1]
     freq (   26) =     -23.057635 [THz] =    -769.119907 [cm-1]
     freq (   27) =      -7.609818 [THz] =    -253.836205 [cm-1]
     freq (   28) =       2.472678 [THz] =      82.479670 [cm-1]
     freq (   29) =       2.472678 [THz] =      82.479670 [cm-1]
     freq (   30) =       4.500863 [THz] =     150.132623 [cm-1]
     freq (   31) =      11.658130 [THz] =     388.873372 [cm-1]
     freq (   32) =      13.333779 [THz] =     444.767003 [cm-1]
     freq (   33) =      13.333779 [THz] =     444.767003 [cm-1]
     freq (   34) =      15.361784 [THz] =     512.413954 [cm-1]
     freq (   35) =      15.361784 [THz] =     512.413954 [cm-1]
     freq (   36) =      19.901750 [THz] =     663.850927 [cm-1]
     freq (   37) =      20.230202 [THz] =     674.806894 [cm-1]
     freq (   38) =      20.230202 [THz] =     674.806894 [cm-1]
     freq (   39) =      22.579920 [THz] =     753.185048 [cm-1]
     freq (   40) =      24.669642 [THz] =     822.890685 [cm-1]
     freq (   41) =      24.669642 [THz] =     822.890685 [cm-1]
     freq (   42) =      26.509002 [THz] =     884.245110 [cm-1]
     freq (   43) =      26.795895 [THz] =     893.814835 [cm-1]
     freq (   44) =      27.339946 [THz] =     911.962447 [cm-1]
     freq (   45) =      30.031423 [THz] =    1001.740453 [cm-1]
     freq (   46) =      30.031423 [THz] =    1001.740453 [cm-1]
     freq (   47) =      31.532896 [THz] =    1051.824205 [cm-1]
     freq (   48) =      31.532896 [THz] =    1051.824205 [cm-1]
     freq (   49) =      31.961516 [THz] =    1066.121413 [cm-1]
     freq (   50) =      32.088241 [THz] =    1070.348502 [cm-1]
     freq (   51) =      32.088241 [THz] =    1070.348502 [cm-1]
     freq (   52) =      32.807051 [THz] =    1094.325433 [cm-1]
     freq (   53) =      35.448427 [THz] =    1182.432238 [cm-1]
     freq (   54) =      35.875140 [THz] =    1196.665868 [cm-1]
     freq (   55) =      35.875140 [THz] =    1196.665868 [cm-1]
     freq (   56) =      36.975951 [THz] =    1233.384967 [cm-1]
     freq (   57) =      36.975951 [THz] =    1233.384967 [cm-1]
     freq (   58) =      39.825125 [THz] =    1328.423171 [cm-1]
     freq (   59) =      43.168333 [THz] =    1439.940597 [cm-1]
     freq (   60) =      45.620583 [THz] =    1521.738846 [cm-1]
     freq (   61) =      51.522212 [THz] =    1718.596009 [cm-1]
     freq (   62) =      53.929000 [THz] =    1798.877805 [cm-1]
     freq (   63) =      55.851951 [THz] =    1863.020565 [cm-1]
     freq (   64) =      58.106115 [THz] =    1938.211372 [cm-1]
     freq (   65) =      61.105876 [THz] =    2038.272621 [cm-1]
     freq (   66) =      69.287657 [THz] =    2311.187455 [cm-1]
 **************************************************************************

     Mode symmetry, C_3v (3m)   point group:

     freq (   1-   2) =      -3645.0  [cm-1]   --> E    L_3           
     freq (   3-   4) =      -3215.1  [cm-1]   --> E    L_3           
     freq (   5-   6) =      -2969.5  [cm-1]   --> E    L_3           
     freq (   7-   8) =      -2867.8  [cm-1]   --> E    L_3           
     freq (   9-  10) =      -2720.3  [cm-1]   --> E    L_3           
     freq (  11-  12) =      -2062.5  [cm-1]   --> E    L_3           
     freq (  13-  14) =      -1775.0  [cm-1]   --> E    L_3           
     freq (  15-  16) =      -1675.4  [cm-1]   --> E    L_3           
     freq (  17-  18) =      -1397.3  [cm-1]   --> E    L_3           
     freq (  19-  19) =      -1392.4  [cm-1]   --> A_2  L_2           
     freq (  20-  21) =      -1372.1  [cm-1]   --> E    L_3           
     freq (  22-  22) =      -1343.7  [cm-1]   --> A_2  L_2           
     freq (  23-  24) =       -936.4  [cm-1]   --> E    L_3           
     freq (  25-  26) =       -769.1  [cm-1]   --> E    L_3           
     freq (  27-  27) =       -253.8  [cm-1]   --> A_1  L_1           
     freq (  28-  29) =         82.5  [cm-1]   --> E    L_3           
     freq (  30-  30) =        150.1  [cm-1]   --> A_1  L_1           
     freq (  31-  31) =        388.9  [cm-1]   --> A_1  L_1           
     freq (  32-  33) =        444.8  [cm-1]   --> E    L_3           
     freq (  34-  35) =        512.4  [cm-1]   --> E    L_3           
     freq (  36-  36) =        663.9  [cm-1]   --> A_1  L_1           
     freq (  37-  38) =        674.8  [cm-1]   --> E    L_3           
     freq (  39-  39) =        753.2  [cm-1]   --> A_1  L_1           
     freq (  40-  41) =        822.9  [cm-1]   --> E    L_3           
     freq (  42-  42) =        884.2  [cm-1]   --> A_1  L_1           
     freq (  43-  43) =        893.8  [cm-1]   --> A_1  L_1           
     freq (  44-  44) =        912.0  [cm-1]   --> A_2  L_2           
     freq (  45-  46) =       1001.7  [cm-1]   --> E    L_3           
     freq (  47-  48) =       1051.8  [cm-1]   --> E    L_3           
     freq (  49-  49) =       1066.1  [cm-1]   --> A_2  L_2           
     freq (  50-  51) =       1070.3  [cm-1]   --> E    L_3           
     freq (  52-  52) =       1094.3  [cm-1]   --> A_1  L_1           
     freq (  53-  53) =       1182.4  [cm-1]   --> A_1  L_1           
     freq (  54-  55) =       1196.7  [cm-1]   --> E    L_3           
     freq (  56-  57) =       1233.4  [cm-1]   --> E    L_3           
     freq (  58-  58) =       1328.4  [cm-1]   --> A_1  L_1           
     freq (  59-  59) =       1439.9  [cm-1]   --> A_1  L_1           
     freq (  60-  60) =       1521.7  [cm-1]   --> A_1  L_1           
     freq (  61-  61) =       1718.6  [cm-1]   --> A_1  L_1           
     freq (  62-  62) =       1798.9  [cm-1]   --> A_1  L_1           
     freq (  63-  63) =       1863.0  [cm-1]   --> A_1  L_1           
     freq (  64-  64) =       1938.2  [cm-1]   --> A_1  L_1           
     freq (  65-  65) =       2038.3  [cm-1]   --> A_1  L_1           
     freq (  66-  66) =       2311.2  [cm-1]   --> A_1  L_1           

     Calculation of q =   -0.4264912  -0.2462348   0.2213977
     [opt_tetra]  Optimized tetrahedron method is used.
 
     Parallelization info
     --------------------
     sticks:   dense  smooth     PW     G-vecs:    dense   smooth      PW
     Min          73      73     24                 1550     1550     292
     Max          74      74     25                 1553     1553     293
     Sum        1767    1767    581                37235    37235    7013
 
     Using Slab Decomposition
 

     Title: 
     Electron-phonon coefficients for LaYH20                                    


     bravais-lattice index     =            5
     lattice parameter (alat)  =      11.1245  a.u.
     unit-cell volume          =     385.4953 (a.u.)^3
     number of atoms/cell      =           22
     number of atomic types    =            3
     number of electrons       =        34.00
     number of Kohn-Sham states=           21
     kinetic-energy cutoff     =      80.0000  Ry
     charge density cutoff     =     320.0000  Ry
     Exchange-correlation= PZ
                           (   1   1   0   0   0   0   0)

     celldm(1)=  11.124512  celldm(2)=   0.000000  celldm(3)=   0.000000
     celldm(4)=   0.828197  celldm(5)=   0.000000  celldm(6)=   0.000000

     crystal axes: (cart. coord. in units of alat)
               a(1) = (   0.293089  -0.169215   0.940991 )  
               a(2) = (   0.000000   0.338430   0.940991 )  
               a(3) = (  -0.293089  -0.169215   0.940991 )  

     reciprocal axes: (cart. coord. in units 2 pi/alat)
               b(1) = (  1.705965 -0.984939  0.354236 )  
               b(2) = (  0.000000  1.969879  0.354236 )  
               b(3) = ( -1.705965 -0.984939  0.354236 )  


     PseudoPot. # 1 for La read from file:
     ./La.UPF
     MD5 check sum: 8e5991bce12d7f16f732aa20d6589152
     Pseudo is Norm-conserving, Zval = 11.0
     Generated in analytical, separable form
     Using radial grid of 1253 points,  7 beta functions with: 
                l(1) =   0
                l(2) =   0
                l(3) =   1
                l(4) =   1
                l(5) =   1
                l(6) =   2
                l(7) =   3

     PseudoPot. # 2 for H  read from file:
     ./H.UPF
     MD5 check sum: df8e43189db5a2d7f03d0dd74d71ce72
     Pseudo is Norm-conserving, Zval =  1.0
     Generated in analytical, separable form
     Using radial grid of  929 points,  0 beta functions with: 

     PseudoPot. # 3 for Y  read from file:
     ./Y.UPF
     MD5 check sum: 28b92b02874aa0fef5f1b1d2b706803c
     Pseudo is Norm-conserving, Zval =  3.0
     Generated in analytical, separable form
     Using radial grid of 1223 points,  7 beta functions with: 
                l(1) =   0
                l(2) =   0
                l(3) =   0
                l(4) =   1
                l(5) =   1
                l(6) =   2
                l(7) =   2

     atomic species   valence    mass     pseudopotential
        La            11.00   138.90547     La( 1.00)
        H              1.00     1.00794     H ( 1.00)
        Y              3.00    88.90585     Y ( 1.00)

     12 Sym. Ops., with inversion, found



   Cartesian axes

     site n.     atom                  positions (alat units)
         1           La  tau(   1) = (   0.0000000  -0.0000000   1.4114872  )
         2           Y   tau(   2) = (   0.0000000   0.0000000   0.0000000  )
         3           H   tau(   3) = (  -0.1430193   0.0825722   2.1620011  )
         4           H   tau(   4) = (   0.0000000  -0.1651445   2.1620011  )
         5           H   tau(   5) = (   0.1430193   0.0825722   2.1620011  )
         6           H   tau(   6) = (  -0.1430193  -0.0825722   0.6609733  )
         7           H   tau(   7) = (   0.0000000   0.1651445   0.6609733  )
         8           H   tau(   8) = (   0.1430193  -0.0825722   0.6609733  )
         9           H   tau(   9) = (   0.1519197  -0.0877109   1.7193890  )
        10           H   tau(  10) = (   0.0000000   0.1754217   1.7193890  )
        11           H   tau(  11) = (  -0.1519197  -0.0877109   1.7193890  )
        12           H   tau(  12) = (   0.1519197   0.0877109   1.1035854  )
        13           H   tau(  13) = (   0.0000000  -0.1754217   1.1035854  )
        14           H   tau(  14) = (  -0.1519197   0.0877109   1.1035854  )
        15           H   tau(  15) = (   0.0000000  -0.0000000   2.2802090  )
        16           H   tau(  16) = (   0.0000000  -0.0000000   0.5427654  )
        17           H   tau(  17) = (   0.0000000  -0.0000000   1.9456472  )
        18           H   tau(  18) = (   0.0000000  -0.0000000   0.8773271  )
        19           H   tau(  19) = (   0.0000000  -0.0000000   2.4752083  )
        20           H   tau(  20) = (   0.0000000  -0.0000000   0.3477661  )
        21           H   tau(  21) = (   0.0000000  -0.0000000   1.0605137  )
        22           H   tau(  22) = (   0.0000000  -0.0000000   1.7624606  )

     number of k points=  1872 (tetrahedron method)

     Number of k-points >= 100: set verbosity='high' to print them.

     Dense  grid:    37235 G-vectors     FFT dimensions: (  64,  64,  64)

     Estimated max dynamical RAM per process >      10.31 MB

     Estimated total dynamical RAM >     247.51 MB

     The potential is recalculated from file :
     ./_ph0/LaYH20.q_2/LaYH20.save/charge-density

     Starting wfcs are   20 atomic +    1 random wfcs

     Band Structure Calculation
     Davidson diagonalization with overlap
     c_bands:  1 eigenvalues not converged
     c_bands:  1 eigenvalues not converged
     c_bands:  1 eigenvalues not converged
     c_bands:  1 eigenvalues not converged
     c_bands:  1 eigenvalues not converged
     c_bands:  1 eigenvalues not converged
     c_bands:  1 eigenvalues not converged
     c_bands:  1 eigenvalues not converged
     c_bands:  1 eigenvalues not converged
     c_bands:  1 eigenvalues not converged
     c_bands:  1 eigenvalues not converged
     c_bands:  1 eigenvalues not converged
     c_bands:  1 eigenvalues not converged
     c_bands:  1 eigenvalues not converged
     c_bands:  1 eigenvalues not converged
     c_bands:  1 eigenvalues not converged
     c_bands:  1 eigenvalues not converged
     c_bands:  1 eigenvalues not converged
     c_bands:  1 eigenvalues not converged
     c_bands:  1 eigenvalues not converged
     c_bands:  1 eigenvalues not converged
     c_bands:  1 eigenvalues not converged
     c_bands:  1 eigenvalues not converged
     c_bands:  1 eigenvalues not converged
     c_bands:  1 eigenvalues not converged
     c_bands:  1 eigenvalues not converged

     ethr =  2.94E-11,  avg # of iterations = 51.0

     total cpu time spent up to now is      618.7 secs

     End of band structure calculation

     Number of k-points >= 100: set verbosity='high' to print the bands.

     the Fermi energy is    16.6364 ev

     Writing config to output data dir ./_ph0/LaYH20.q_2/LaYH20.save/
 
     [dfpt_tetra]  Dos(E_F)[/Ry] :   0.2159144E+02

     Electron-phonon coefficients for LaYH20                                    

     bravais-lattice index     =            5
     lattice parameter (alat)  =      11.1245  a.u.
     unit-cell volume          =     385.4953 (a.u.)^3
     number of atoms/cell      =           22
     number of atomic types    =            3
     kinetic-energy cut-off    =      80.0000  Ry
     charge density cut-off    =     320.0000  Ry
     convergence threshold     =      1.0E-08
     beta                      =       0.7000
     number of iterations used =            4
     Exchange-correlation= PZ
                           (   1   1   0   0   0   0   0)


     celldm(1)=   11.12451  celldm(2)=    0.00000  celldm(3)=    0.00000
     celldm(4)=    0.82820  celldm(5)=    0.00000  celldm(6)=    0.00000

     crystal axes: (cart. coord. in units of alat)
               a(1) = (  0.2931 -0.1692  0.9410 )  
               a(2) = (  0.0000  0.3384  0.9410 )  
               a(3) = ( -0.2931 -0.1692  0.9410 )  

     reciprocal axes: (cart. coord. in units 2 pi/alat)
               b(1) = (  1.7060 -0.9849  0.3542 )  
               b(2) = (  0.0000  1.9699  0.3542 )  
               b(3) = ( -1.7060 -0.9849  0.3542 )  


     Atoms inside the unit cell: 

     Cartesian axes

     site n.  atom      mass           positions (alat units)
        1     La 138.9055   tau(    1) = (    0.00000   -0.00000    1.41149  )
        2     Y   88.9059   tau(    2) = (    0.00000    0.00000    0.00000  )
        3     H    1.0079   tau(    3) = (   -0.14302    0.08257    2.16200  )
        4     H    1.0079   tau(    4) = (    0.00000   -0.16514    2.16200  )
        5     H    1.0079   tau(    5) = (    0.14302    0.08257    2.16200  )
        6     H    1.0079   tau(    6) = (   -0.14302   -0.08257    0.66097  )
        7     H    1.0079   tau(    7) = (    0.00000    0.16514    0.66097  )
        8     H    1.0079   tau(    8) = (    0.14302   -0.08257    0.66097  )
        9     H    1.0079   tau(    9) = (    0.15192   -0.08771    1.71939  )
       10     H    1.0079   tau(   10) = (    0.00000    0.17542    1.71939  )
       11     H    1.0079   tau(   11) = (   -0.15192   -0.08771    1.71939  )
       12     H    1.0079   tau(   12) = (    0.15192    0.08771    1.10359  )
       13     H    1.0079   tau(   13) = (    0.00000   -0.17542    1.10359  )
       14     H    1.0079   tau(   14) = (   -0.15192    0.08771    1.10359  )
       15     H    1.0079   tau(   15) = (    0.00000   -0.00000    2.28021  )
       16     H    1.0079   tau(   16) = (    0.00000   -0.00000    0.54277  )
       17     H    1.0079   tau(   17) = (    0.00000   -0.00000    1.94565  )
       18     H    1.0079   tau(   18) = (    0.00000   -0.00000    0.87733  )
       19     H    1.0079   tau(   19) = (    0.00000   -0.00000    2.47521  )
       20     H    1.0079   tau(   20) = (    0.00000   -0.00000    0.34777  )
       21     H    1.0079   tau(   21) = (    0.00000   -0.00000    1.06051  )
       22     H    1.0079   tau(   22) = (    0.00000   -0.00000    1.76246  )

     Computing dynamical matrix for 
                    q = (  -0.4264912  -0.2462348   0.2213977 )
 
      2 Sym.Ops. (no q -> -q+G )


     G cutoff = 1003.1184  (   1551 G-vectors)     FFT grid: ( 64, 64, 64)
     number of k points=  1872

     PseudoPot. # 1 for La read from file:
     ./La.UPF
     MD5 check sum: 8e5991bce12d7f16f732aa20d6589152
     Pseudo is Norm-conserving, Zval = 11.0
     Generated in analytical, separable form
     Using radial grid of 1253 points,  7 beta functions with: 
                l(1) =   0
                l(2) =   0
                l(3) =   1
                l(4) =   1
                l(5) =   1
                l(6) =   2
                l(7) =   3

     PseudoPot. # 2 for H  read from file:
     ./H.UPF
     MD5 check sum: df8e43189db5a2d7f03d0dd74d71ce72
     Pseudo is Norm-conserving, Zval =  1.0
     Generated in analytical, separable form
     Using radial grid of  929 points,  0 beta functions with: 

     PseudoPot. # 3 for Y  read from file:
     ./Y.UPF
     MD5 check sum: 28b92b02874aa0fef5f1b1d2b706803c
     Pseudo is Norm-conserving, Zval =  3.0
     Generated in analytical, separable form
     Using radial grid of 1223 points,  7 beta functions with: 
                l(1) =   0
                l(2) =   0
                l(3) =   0
                l(4) =   1
                l(5) =   1
                l(6) =   2
                l(7) =   2

     Mode symmetry, C_s (m)     point group:


     Atomic displacements:
     There are   66 irreducible representations

     Representation     1      1 modes -  To be done

     Representation     2      1 modes -  To be done

     Representation     3      1 modes -  To be done

     Representation     4      1 modes -  To be done

     Representation     5      1 modes -  To be done

     Representation     6      1 modes -  To be done

     Representation     7      1 modes -  To be done

     Representation     8      1 modes -  To be done

     Representation     9      1 modes -  To be done

     Representation    10      1 modes -  To be done

     Representation    11      1 modes -  To be done

     Representation    12      1 modes -  To be done

     Representation    13      1 modes -  To be done

     Representation    14      1 modes -  To be done

     Representation    15      1 modes -  To be done

     Representation    16      1 modes -  To be done

     Representation    17      1 modes -  To be done

     Representation    18      1 modes -  To be done

     Representation    19      1 modes -  To be done

     Representation    20      1 modes -  To be done

     Representation    21      1 modes -  To be done

     Representation    22      1 modes -  To be done

     Representation    23      1 modes -  To be done

     Representation    24      1 modes -  To be done

     Representation    25      1 modes -  To be done

     Representation    26      1 modes -  To be done

     Representation    27      1 modes -  To be done

     Representation    28      1 modes -  To be done

     Representation    29      1 modes -  To be done

     Representation    30      1 modes -  To be done

     Representation    31      1 modes -  To be done

     Representation    32      1 modes -  To be done

     Representation    33      1 modes -  To be done

     Representation    34      1 modes -  To be done

     Representation    35      1 modes -  To be done

     Representation    36      1 modes -  To be done

     Representation    37      1 modes -  To be done

     Representation    38      1 modes -  To be done

     Representation    39      1 modes -  To be done

     Representation    40      1 modes -  To be done

     Representation    41      1 modes -  To be done

     Representation    42      1 modes -  To be done

     Representation    43      1 modes -  To be done

     Representation    44      1 modes -  To be done

     Representation    45      1 modes -  To be done

     Representation    46      1 modes -  To be done

     Representation    47      1 modes -  To be done

     Representation    48      1 modes -  To be done

     Representation    49      1 modes -  To be done

     Representation    50      1 modes -  To be done

     Representation    51      1 modes -  To be done

     Representation    52      1 modes -  To be done

     Representation    53      1 modes -  To be done

     Representation    54      1 modes -  To be done

     Representation    55      1 modes -  To be done

     Representation    56      1 modes -  To be done

     Representation    57      1 modes -  To be done

     Representation    58      1 modes -  To be done

     Representation    59      1 modes -  To be done

     Representation    60      1 modes -  To be done

     Representation    61      1 modes -  To be done

     Representation    62      1 modes -  To be done

     Representation    63      1 modes -  To be done

     Representation    64      1 modes -  To be done

     Representation    65      1 modes -  To be done

     Representation    66      1 modes -  To be done



     Alpha used in Ewald sum =   2.8000
     PHONON       :      2h11m CPU      2h20m WALL



     Representation #   1 mode #   1

     Self-consistent Calculation

      iter #   1 total cpu time :  8448.3 secs   av.it.:   4.8
      thresh= 1.000E-02 alpha_mix =  0.700 |ddv_scf|^2 =  6.404E-06

      iter #   2 total cpu time :  8545.9 secs   av.it.:  13.7
      thresh= 2.531E-04 alpha_mix =  0.700 |ddv_scf|^2 =  6.694E-04

      iter #   3 total cpu time :  8617.9 secs   av.it.:   9.6
      thresh= 2.587E-03 alpha_mix =  0.700 |ddv_scf|^2 =  1.368E-07

      iter #   4 total cpu time :  8706.3 secs   av.it.:  13.9
      thresh= 3.699E-05 alpha_mix =  0.700 |ddv_scf|^2 =  1.729E-07

      iter #   5 total cpu time :  8795.1 secs   av.it.:  12.2
      thresh= 4.158E-05 alpha_mix =  0.700 |ddv_scf|^2 =  3.755E-09

     End of self-consistent calculation

     Convergence has been achieved 


     Representation #   2 mode #   2

     Self-consistent Calculation

      iter #   1 total cpu time :  8838.9 secs   av.it.:   4.6
      thresh= 1.000E-02 alpha_mix =  0.700 |ddv_scf|^2 =  7.266E-06

      iter #   2 total cpu time :  8927.6 secs   av.it.:  13.6
      thresh= 2.696E-04 alpha_mix =  0.700 |ddv_scf|^2 =  7.624E-04

      iter #   3 total cpu time :  9000.0 secs   av.it.:   9.6
      thresh= 2.761E-03 alpha_mix =  0.700 |ddv_scf|^2 =  1.464E-07

      iter #   4 total cpu time :  9099.7 secs   av.it.:  14.0
      thresh= 3.826E-05 alpha_mix =  0.700 |ddv_scf|^2 =  1.773E-07

      iter #   5 total cpu time :  9182.7 secs   av.it.:  12.1
      thresh= 4.210E-05 alpha_mix =  0.700 |ddv_scf|^2 =  5.044E-09

     End of self-consistent calculation

     Convergence has been achieved 


     Representation #   3 mode #   3

     Self-consistent Calculation

      iter #   1 total cpu time :  9237.5 secs   av.it.:   4.9
      thresh= 1.000E-02 alpha_mix =  0.700 |ddv_scf|^2 =  6.477E-06

      iter #   2 total cpu time :  9332.8 secs   av.it.:  13.7
      thresh= 2.545E-04 alpha_mix =  0.700 |ddv_scf|^2 =  6.712E-04

      iter #   3 total cpu time :  9402.0 secs   av.it.:   9.7
      thresh= 2.591E-03 alpha_mix =  0.700 |ddv_scf|^2 =  2.701E-07

      iter #   4 total cpu time :  9497.9 secs   av.it.:  13.4
      thresh= 5.197E-05 alpha_mix =  0.700 |ddv_scf|^2 =  1.460E-07

      iter #   5 total cpu time :  9578.7 secs   av.it.:  12.4
      thresh= 3.821E-05 alpha_mix =  0.700 |ddv_scf|^2 =  4.576E-09

     End of self-consistent calculation

     Convergence has been achieved 


     Representation #   4 mode #   4

     Self-consistent Calculation

      iter #   1 total cpu time :  9645.4 secs   av.it.:   8.7
      thresh= 1.000E-02 alpha_mix =  0.700 |ddv_scf|^2 =  8.885E-04

      iter #   2 total cpu time :  9773.1 secs   av.it.:  13.7
      thresh= 2.981E-03 alpha_mix =  0.700 |ddv_scf|^2 =  9.360E-02

[...]


     Representation #  53 mode #  53

     Self-consistent Calculation

      iter #   1 total cpu time :211607.1 secs   av.it.:   4.0
      thresh= 1.000E-02 alpha_mix =  0.700 |ddv_scf|^2 =  6.427E-09

     End of self-consistent calculation

     Convergence has been achieved 


     Representation #  54 mode #  54

     Self-consistent Calculation

      iter #   1 total cpu time :211670.0 secs   av.it.:   4.0
      thresh= 1.000E-02 alpha_mix =  0.700 |ddv_scf|^2 =  1.774E-08

      iter #   2 total cpu time :211763.3 secs   av.it.:  14.0
      thresh= 1.332E-05 alpha_mix =  0.700 |ddv_scf|^2 =  3.057E-09

     End of self-consistent calculation

     Convergence has been achieved 


     Representation #  55 mode #  55

     Self-consistent Calculation

      iter #   1 total cpu time :211804.8 secs   av.it.:   4.2
      thresh= 1.000E-02 alpha_mix =  0.700 |ddv_scf|^2 =  2.168E-08

      iter #   2 total cpu time :211900.2 secs   av.it.:  14.7
      thresh= 1.472E-05 alpha_mix =  0.700 |ddv_scf|^2 =  5.986E-09

     End of self-consistent calculation

     Convergence has been achieved 


     Representation #  56 mode #  56

     Self-consistent Calculation

      iter #   1 total cpu time :211936.6 secs   av.it.:   3.8
      thresh= 1.000E-02 alpha_mix =  0.700 |ddv_scf|^2 =  1.289E-09

     End of self-consistent calculation

     Convergence has been achieved 


     Representation #  57 mode #  57

     Self-consistent Calculation

      iter #   1 total cpu time :211976.6 secs   av.it.:   3.8
      thresh= 1.000E-02 alpha_mix =  0.700 |ddv_scf|^2 =  1.516E-09

     End of self-consistent calculation

     Convergence has been achieved 


     Representation #  58 mode #  58

     Self-consistent Calculation

      iter #   1 total cpu time :212017.9 secs   av.it.:   4.0
      thresh= 1.000E-02 alpha_mix =  0.700 |ddv_scf|^2 =  1.686E-08

      iter #   2 total cpu time :212114.3 secs   av.it.:  14.1
      thresh= 1.298E-05 alpha_mix =  0.700 |ddv_scf|^2 =  2.915E-09

     End of self-consistent calculation

     Convergence has been achieved 


     Representation #  59 mode #  59

     Self-consistent Calculation

      iter #   1 total cpu time :212154.1 secs   av.it.:   4.1
      thresh= 1.000E-02 alpha_mix =  0.700 |ddv_scf|^2 =  1.955E-08

      iter #   2 total cpu time :212256.9 secs   av.it.:  14.7
      thresh= 1.398E-05 alpha_mix =  0.700 |ddv_scf|^2 =  4.967E-09

     End of self-consistent calculation

     Convergence has been achieved 


     Representation #  60 mode #  60

     Self-consistent Calculation

      iter #   1 total cpu time :212297.4 secs   av.it.:   4.2
      thresh= 1.000E-02 alpha_mix =  0.700 |ddv_scf|^2 =  2.168E-08

      iter #   2 total cpu time :212398.9 secs   av.it.:  14.7
      thresh= 1.472E-05 alpha_mix =  0.700 |ddv_scf|^2 =  5.987E-09

     End of self-consistent calculation

     Convergence has been achieved 


     Representation #  61 mode #  61

     Self-consistent Calculation

      iter #   1 total cpu time :212439.6 secs   av.it.:   4.2
      thresh= 1.000E-02 alpha_mix =  0.700 |ddv_scf|^2 =  2.114E-08

      iter #   2 total cpu time :212539.3 secs   av.it.:  14.6
      thresh= 1.454E-05 alpha_mix =  0.700 |ddv_scf|^2 =  5.349E-09

     End of self-consistent calculation

     Convergence has been achieved 


     Representation #  62 mode #  62

     Self-consistent Calculation

      iter #   1 total cpu time :212580.2 secs   av.it.:   4.0
      thresh= 1.000E-02 alpha_mix =  0.700 |ddv_scf|^2 =  1.686E-08

      iter #   2 total cpu time :212678.0 secs   av.it.:  14.1
      thresh= 1.298E-05 alpha_mix =  0.700 |ddv_scf|^2 =  2.915E-09

     End of self-consistent calculation

     Convergence has been achieved 


     Representation #  63 mode #  63

     Self-consistent Calculation

      iter #   1 total cpu time :212717.9 secs   av.it.:   4.0
      thresh= 1.000E-02 alpha_mix =  0.700 |ddv_scf|^2 =  6.785E-09

     End of self-consistent calculation

     Convergence has been achieved 


     Representation #  64 mode #  64

     Self-consistent Calculation

      iter #   1 total cpu time :212759.5 secs   av.it.:   3.9
      thresh= 1.000E-02 alpha_mix =  0.700 |ddv_scf|^2 =  1.751E-08

      iter #   2 total cpu time :212854.1 secs   av.it.:  13.7
      thresh= 1.323E-05 alpha_mix =  0.700 |ddv_scf|^2 =  2.857E-09

     End of self-consistent calculation

     Convergence has been achieved 


     Representation #  65 mode #  65

     Self-consistent Calculation

      iter #   1 total cpu time :212898.6 secs   av.it.:   3.9
      thresh= 1.000E-02 alpha_mix =  0.700 |ddv_scf|^2 =  3.722E-09

     End of self-consistent calculation

     Convergence has been achieved 


     Representation #  66 mode #  66

     Self-consistent Calculation

      iter #   1 total cpu time :212961.2 secs   av.it.:   7.7
      thresh= 1.000E-02 alpha_mix =  0.700 |ddv_scf|^2 =  9.933E-07

      iter #   2 total cpu time :213059.4 secs   av.it.:  14.6
      thresh= 9.966E-05 alpha_mix =  0.700 |ddv_scf|^2 =  3.613E-07

      iter #   3 total cpu time :213163.7 secs   av.it.:  14.1
      thresh= 6.011E-05 alpha_mix =  0.700 |ddv_scf|^2 =  6.346E-10

     End of self-consistent calculation

     Convergence has been achieved 
 
     Number of q in the star =    6
     List of q in the star:
          1   1.279473656   0.738704460   0.132838614
          2   0.000000000  -1.477408919   0.132838614
          3  -1.279473656   0.738704460   0.132838614
          4  -1.279473656  -0.738704460  -0.132838614
          5   1.279473656  -0.738704460  -0.132838614
          6  -0.000000000   1.477408919  -0.132838614

     Diagonalizing the dynamical matrix

     q = (    1.279473656   0.738704460   0.132838614 ) 

 **************************************************************************
     freq (    1) =     -63.736467 [THz] =   -2126.019707 [cm-1]
     freq (    2) =     -56.435910 [THz] =   -1882.499318 [cm-1]
     freq (    3) =     -52.706604 [THz] =   -1758.103081 [cm-1]
     freq (    4) =     -50.125797 [THz] =   -1672.016601 [cm-1]
     freq (    5) =     -49.927331 [THz] =   -1665.396511 [cm-1]
     freq (    6) =     -44.152690 [THz] =   -1472.775220 [cm-1]
     freq (    7) =     -33.910942 [THz] =   -1131.147275 [cm-1]
     freq (    8) =     -31.919641 [THz] =   -1064.724602 [cm-1]
     freq (    9) =     -30.797511 [THz] =   -1027.294379 [cm-1]
     freq (   10) =     -23.956733 [THz] =    -799.110608 [cm-1]
     freq (   11) =     -23.869587 [THz] =    -796.203731 [cm-1]
     freq (   12) =     -21.524547 [THz] =    -717.981619 [cm-1]
     freq (   13) =     -14.783154 [THz] =    -493.112940 [cm-1]
     freq (   14) =     -11.917616 [THz] =    -397.528867 [cm-1]
     freq (   15) =      -7.147686 [THz] =    -238.421132 [cm-1]
     freq (   16) =      -3.821567 [THz] =    -127.473756 [cm-1]
     freq (   17) =       2.815498 [THz] =      93.914919 [cm-1]
     freq (   18) =       3.006928 [THz] =     100.300314 [cm-1]
     freq (   19) =       4.273632 [THz] =     142.553015 [cm-1]
     freq (   20) =       5.573409 [THz] =     185.908903 [cm-1]
     freq (   21) =       7.989464 [THz] =     266.499841 [cm-1]
     freq (   22) =       9.248140 [THz] =     308.484732 [cm-1]
     freq (   23) =       9.586852 [THz] =     319.782975 [cm-1]
     freq (   24) =      13.507470 [THz] =     450.560701 [cm-1]
     freq (   25) =      18.561028 [THz] =     619.129253 [cm-1]
     freq (   26) =      22.449736 [THz] =     748.842596 [cm-1]
     freq (   27) =      23.856454 [THz] =     795.765662 [cm-1]
     freq (   28) =      24.352729 [THz] =     812.319602 [cm-1]
     freq (   29) =      25.120965 [THz] =     837.945201 [cm-1]
     freq (   30) =      26.046816 [THz] =     868.828252 [cm-1]
     freq (   31) =      26.162496 [THz] =     872.686923 [cm-1]
     freq (   32) =      27.758563 [THz] =     925.925999 [cm-1]
     freq (   33) =      28.683496 [THz] =     956.778437 [cm-1]
     freq (   34) =      29.226255 [THz] =     974.882933 [cm-1]
     freq (   35) =      30.667384 [THz] =    1022.953834 [cm-1]
     freq (   36) =      31.388607 [THz] =    1047.011214 [cm-1]
     freq (   37) =      31.534946 [THz] =    1051.892564 [cm-1]
     freq (   38) =      32.653880 [THz] =    1089.216177 [cm-1]
     freq (   39) =      33.325288 [THz] =    1111.611957 [cm-1]
     freq (   40) =      33.630207 [THz] =    1121.782959 [cm-1]
     freq (   41) =      34.663638 [THz] =    1156.254493 [cm-1]
     freq (   42) =      34.773964 [THz] =    1159.934580 [cm-1]
     freq (   43) =      35.705216 [THz] =    1190.997806 [cm-1]
     freq (   44) =      37.661315 [THz] =    1256.246258 [cm-1]
     freq (   45) =      38.602857 [THz] =    1287.652701 [cm-1]
     freq (   46) =      40.065165 [THz] =    1336.430059 [cm-1]
     freq (   47) =      40.650864 [THz] =    1355.966857 [cm-1]
     freq (   48) =      41.036865 [THz] =    1368.842467 [cm-1]
     freq (   49) =      41.755682 [THz] =    1392.819634 [cm-1]
     freq (   50) =      45.843718 [THz] =    1529.181838 [cm-1]
     freq (   51) =      45.974867 [THz] =    1533.556490 [cm-1]
     freq (   52) =      46.881657 [THz] =    1563.803733 [cm-1]
     freq (   53) =      47.093273 [THz] =    1570.862502 [cm-1]
     freq (   54) =      48.313081 [THz] =    1611.550924 [cm-1]
     freq (   55) =      50.187900 [THz] =    1674.088148 [cm-1]
     freq (   56) =      50.477706 [THz] =    1683.755044 [cm-1]
     freq (   57) =      51.493111 [THz] =    1717.625300 [cm-1]
     freq (   58) =      52.837174 [THz] =    1762.458407 [cm-1]
     freq (   59) =      54.633075 [THz] =    1822.363212 [cm-1]
     freq (   60) =      55.651777 [THz] =    1856.343465 [cm-1]
     freq (   61) =      57.297562 [THz] =    1911.240953 [cm-1]
     freq (   62) =      57.373273 [THz] =    1913.766385 [cm-1]
     freq (   63) =      60.232509 [THz] =    2009.140253 [cm-1]
     freq (   64) =      66.548163 [THz] =    2219.807792 [cm-1]
     freq (   65) =      74.205880 [THz] =    2475.241737 [cm-1]
     freq (   66) =     103.862935 [THz] =    3464.494602 [cm-1]
 **************************************************************************

     Mode symmetry, C_s (m)     point group:

     freq (   1-   1) =      -2126.0  [cm-1]   --> A''                
     freq (   2-   2) =      -1882.5  [cm-1]   --> A''                
     freq (   3-   3) =      -1758.1  [cm-1]   --> A''                
     freq (   4-   4) =      -1672.0  [cm-1]   --> A'                 
     freq (   5-   5) =      -1665.4  [cm-1]   --> A''                
     freq (   6-   6) =      -1472.8  [cm-1]   --> A''                
     freq (   7-   7) =      -1131.1  [cm-1]   --> A''                
     freq (   8-   8) =      -1064.7  [cm-1]   --> A''                
     freq (   9-   9) =      -1027.3  [cm-1]   --> A''                
     freq (  10-  10) =       -799.1  [cm-1]   --> A'                 
     freq (  11-  11) =       -796.2  [cm-1]   --> A''                
     freq (  12-  12) =       -718.0  [cm-1]   --> A''                
     freq (  13-  13) =       -493.1  [cm-1]   --> A''                
     freq (  14-  14) =       -397.5  [cm-1]   --> A'                 
     freq (  15-  15) =       -238.4  [cm-1]   --> A'                 
     freq (  16-  16) =       -127.5  [cm-1]   --> A''                
     freq (  17-  17) =         93.9  [cm-1]   --> A'                 
     freq (  18-  18) =        100.3  [cm-1]   --> A''                
     freq (  19-  19) =        142.6  [cm-1]   --> A'                 
     freq (  20-  20) =        185.9  [cm-1]   --> A'                 
     freq (  21-  21) =        266.5  [cm-1]   --> A'                 
     freq (  22-  22) =        308.5  [cm-1]   --> A'                 
     freq (  23-  23) =        319.8  [cm-1]   --> A''                
     freq (  24-  24) =        450.6  [cm-1]   --> A'                 
     freq (  25-  25) =        619.1  [cm-1]   --> A'                 
     freq (  26-  26) =        748.8  [cm-1]   --> A'                 
     freq (  27-  27) =        795.8  [cm-1]   --> A''                
     freq (  28-  28) =        812.3  [cm-1]   --> A'                 
     freq (  29-  29) =        837.9  [cm-1]   --> A'                 
     freq (  30-  30) =        868.8  [cm-1]   --> A''                
     freq (  31-  31) =        872.7  [cm-1]   --> A'                 
     freq (  32-  32) =        925.9  [cm-1]   --> A'                 
     freq (  33-  33) =        956.8  [cm-1]   --> A'                 
     freq (  34-  34) =        974.9  [cm-1]   --> A'                 
     freq (  35-  35) =       1023.0  [cm-1]   --> A'                 
     freq (  36-  36) =       1047.0  [cm-1]   --> A'                 
     freq (  37-  37) =       1051.9  [cm-1]   --> A''                
     freq (  38-  38) =       1089.2  [cm-1]   --> A'                 
     freq (  39-  39) =       1111.6  [cm-1]   --> A''                
     freq (  40-  40) =       1121.8  [cm-1]   --> A'                 
     freq (  41-  41) =       1156.3  [cm-1]   --> A'                 
     freq (  42-  42) =       1159.9  [cm-1]   --> A''                
     freq (  43-  43) =       1191.0  [cm-1]   --> A'                 
     freq (  44-  44) =       1256.2  [cm-1]   --> A'                 
     freq (  45-  45) =       1287.7  [cm-1]   --> A'                 
     freq (  46-  46) =       1336.4  [cm-1]   --> A''                
     freq (  47-  47) =       1356.0  [cm-1]   --> A'                 
     freq (  48-  48) =       1368.8  [cm-1]   --> A'                 
     freq (  49-  49) =       1392.8  [cm-1]   --> A''                
     freq (  50-  50) =       1529.2  [cm-1]   --> A'                 
     freq (  51-  51) =       1533.6  [cm-1]   --> A'                 
     freq (  52-  52) =       1563.8  [cm-1]   --> A''                
     freq (  53-  53) =       1570.9  [cm-1]   --> A'                 
     freq (  54-  54) =       1611.6  [cm-1]   --> A'                 
     freq (  55-  55) =       1674.1  [cm-1]   --> A''                
     freq (  56-  56) =       1683.8  [cm-1]   --> A'                 
     freq (  57-  57) =       1717.6  [cm-1]   --> A'                 
     freq (  58-  58) =       1762.5  [cm-1]   --> A'                 
     freq (  59-  59) =       1822.4  [cm-1]   --> A'                 
     freq (  60-  60) =       1856.3  [cm-1]   --> A'                 
     freq (  61-  61) =       1911.2  [cm-1]   --> A''                
     freq (  62-  62) =       1913.8  [cm-1]   --> A'                 
     freq (  63-  63) =       2009.1  [cm-1]   --> A'                 
     freq (  64-  64) =       2219.8  [cm-1]   --> A'                 
     freq (  65-  65) =       2475.2  [cm-1]   --> A''                
     freq (  66-  66) =       3464.5  [cm-1]   --> A''                
 
     init_run     :      0.80s CPU      0.92s WALL (      10 calls)
     electrons    :   4829.18s CPU   4984.35s WALL (      10 calls)

     Called by init_run:
     wfcinit      :      0.00s CPU      0.07s WALL (      10 calls)
     potinit      :      0.02s CPU      0.03s WALL (      10 calls)
     hinit0       :      0.35s CPU      0.35s WALL (      10 calls)

     Called by electrons:
     c_bands      :   4815.42s CPU   4970.55s WALL (      10 calls)
     v_of_rho     :      0.01s CPU      0.01s WALL (      11 calls)

     Called by c_bands:
     init_us_2    :    540.16s CPU    579.53s WALL ( 3646460 calls)
     init_us_2:cp :    530.44s CPU    570.49s WALL ( 3646460 calls)
     cegterg      :   4305.89s CPU   4393.39s WALL (   58659 calls)

     Called by *egterg:
     cdiaghg      :   1305.85s CPU   1323.35s WALL ( 1020747 calls)
     h_psi        : 141679.24s CPU 145762.78s WALL (49482214 calls)
     g_psi        :      8.45s CPU      8.59s WALL ( 1001147 calls)

     Called by h_psi:
     h_psi:calbec :   4710.30s CPU   4841.75s WALL (49482214 calls)
     vloc_psi     : 134793.72s CPU 138676.90s WALL (49482214 calls)
     add_vuspsi   :   1675.84s CPU   1731.41s WALL (49482214 calls)

     General routines
     calbec       :   7050.84s CPU   7267.85s WALL (******** calls)
     fft          :      0.87s CPU      1.20s WALL (    7042 calls)
     ffts         :   1186.77s CPU   1202.79s WALL (  687456 calls)
     fftw         : 161406.09s CPU 165874.37s WALL (******** calls)
     davcio       :    521.65s CPU   5724.67s WALL (13121208 calls)
 
     Parallel routines
 
     PHONON       :   2d 7h56m CPU   2d11h12m WALL

     INITIALIZATION: 
     phq_setup    :      1.72s CPU      2.03s WALL (      10 calls)
     phq_init     :     38.45s CPU     39.60s WALL (      10 calls)
 
     phq_init     :     38.45s CPU     39.60s WALL (      10 calls)
     init_vloc    :      0.21s CPU      0.21s WALL (      11 calls)
     init_us_1    :      0.17s CPU      0.17s WALL (      11 calls)
     init_us_2    :    540.16s CPU    579.53s WALL ( 3646460 calls)
 
     DYNAMICAL MATRIX:
     dynmat0      :     33.19s CPU     33.65s WALL (      10 calls)
     phqscf       : 196495.12s CPU 208122.42s WALL (      10 calls)
     dynmatrix    :      1.40s CPU      1.76s WALL (      10 calls)
 
     phqscf       : 196495.12s CPU 208122.42s WALL (      10 calls)
     solve_linter : 196091.45s CPU 207572.09s WALL (     616 calls)
     drhodv       :    401.45s CPU    425.74s WALL (     616 calls)
 
     dynmat0      :     33.19s CPU     33.65s WALL (      10 calls)
     dynmat_us    :     32.32s CPU     32.70s WALL (      10 calls)
     d2ionq       :      0.84s CPU      0.84s WALL (      10 calls)
 
     dynmat_us    :     32.32s CPU     32.70s WALL (      10 calls)
 
     phqscf       : 196495.12s CPU 208122.42s WALL (      10 calls)
     solve_linter : 196091.45s CPU 207572.09s WALL (     616 calls)
 
     solve_linter : 196091.45s CPU 207572.09s WALL (     616 calls)
     dvqpsi_us    :   4922.58s CPU   5061.08s WALL (  646800 calls)
     sth_kernel   : 190901.11s CPU 201092.21s WALL (    2285 calls)
     apply_dpot_b :   9287.17s CPU   9700.21s WALL ( 1716364 calls)
     ortho        :    351.14s CPU    369.96s WALL ( 2363164 calls)
     cgsolve      : 148299.33s CPU 152606.46s WALL ( 2363164 calls)
     incdrhoscf   :  31592.05s CPU  32240.53s WALL ( 2363164 calls)
     dv_of_drho   :      0.96s CPU      1.31s WALL (    2333 calls)
     mix_pot      :     23.18s CPU    209.99s WALL (    2285 calls)
     psymdvscf    :     71.33s CPU     72.26s WALL (    1750 calls)
 
     dvqpsi_us    :   4922.58s CPU   5061.08s WALL (  646800 calls)
     dvqpsi_us_on :    331.30s CPU    338.14s WALL (  646800 calls)
 
     cgsolve      : 148299.33s CPU 152606.46s WALL ( 2363164 calls)
     ch_psi       : 145665.66s CPU 149877.57s WALL (48402808 calls)
 
     ch_psi       : 145665.66s CPU 149877.57s WALL (48402808 calls)
     h_psi        : 141679.24s CPU 145762.78s WALL (49482214 calls)
     last         :   5872.72s CPU   6054.76s WALL (48402808 calls)
 
     h_psi        : 141679.24s CPU 145762.78s WALL (49482214 calls)
     add_vuspsi   :   1675.84s CPU   1731.41s WALL (49482214 calls)
 
     incdrhoscf   :  31592.05s CPU  32240.53s WALL ( 2363164 calls)
 
 
      General routines
     calbec       :   7050.84s CPU   7267.85s WALL (******** calls)
     fft          :      0.87s CPU      1.20s WALL (    7042 calls)
     ffts         :   1186.77s CPU   1202.79s WALL (  687456 calls)
     fftw         : 161406.09s CPU 165874.37s WALL (******** calls)
     davcio       :    521.65s CPU   5724.67s WALL (13121208 calls)
     write_rec    :      3.25s CPU    872.49s WALL (    2901 calls)
 
 
     PHONON       :   2d 7h56m CPU   2d11h12m WALL

 
   This run was terminated on:   6:48:57  29May2022            

=------------------------------------------------------------------------------=
   JOB DONE.
=------------------------------------------------------------------------------=
