
     Program PHONON v.7.0 starts on 29May2022 at  6:48:58 

     This program is part of the open-source Quantum ESPRESSO suite
     for quantum simulation of materials; please cite
         "P. Giannozzi et al., J. Phys.:Condens. Matter 21 395502 (2009);
         "P. Giannozzi et al., J. Phys.:Condens. Matter 29 465901 (2017);
         "P. Giannozzi et al., J. Chem. Phys. 152 154105 (2020);
          URL http://www.quantum-espresso.org", 
     in publications or presentations arising from this work. More details at
     http://www.quantum-espresso.org/quote

     Parallel version (MPI), running on    20 processors

     MPI processes distributed on     1 nodes
     R & G space division:  proc/nbgrp/npool/nimage =      20
     47481 MiB available memory on the printing compute node when the environment starts
 
     Reading input from /home/mgrebenyuk/QE/Examples/LaYH20/180GPa/4x4x4/elph.in

     Reading xml data from directory:

     ./LaYH20.save/

     IMPORTANT: XC functional enforced from input :
     Exchange-correlation= PZ
                           (   1   1   0   0   0   0   0)
     Any further DFT definition will be discarded
     Please, verify this is what you really want

 
     Parallelization info
     --------------------
     sticks:   dense  smooth     PW     G-vecs:    dense   smooth      PW
     Min          88      88     27                 1861     1861     322
     Max          89      89     28                 1863     1863     324
     Sum        1767    1767    547                37235    37235    6453
 
     Using Slab Decomposition
 
     Reading collected, re-writing distributed wavefunctions


     Dynamical matrices for ( 4, 4, 4)  uniform grid of q-points
     With a half shift
     (  10 q-points):
       N         xq(1)         xq(2)         xq(3) 
       1   0.000000000   0.000000000   0.132838614
       2  -0.426491219  -0.246234820   0.221397690
       3   0.852982437   0.492469640  -0.044279538
       4   0.426491219   0.246234820   0.044279538
       5  -0.426491219   0.246234820   0.309956766
       6   0.852982437   0.984939279   0.044279538
       7   0.426491219   0.738704460   0.132838614
       8   0.852982437  -0.492469640  -0.221397690
       9   0.000000000   0.000000000   0.398515843
      10   1.279473656   0.738704460   0.132838614
     Because shifted q grid is used, q2r will not work !

     Saving dvscf to file. Distribute only q points, not irreducible represetations.

     Calculation of q =    0.0000000   0.0000000   0.1328386

     Subspace diagonalization in iterative solution of the eigenvalue problem:
     a serial algorithm will be used

     [opt_tetra]  Optimized tetrahedron method is used.
 
     Parallelization info
     --------------------
     sticks:   dense  smooth     PW     G-vecs:    dense   smooth      PW
     Min          88      88     27                 1861     1861     322
     Max          89      89     28                 1863     1863     325
     Sum        1767    1767    547                37235    37235    6465
 
     Using Slab Decomposition
 

     Title: 
      Electron-phonon for LaYH20                                                


     bravais-lattice index     =            5
     lattice parameter (alat)  =      11.1245  a.u.
     unit-cell volume          =     385.4953 (a.u.)^3
     number of atoms/cell      =           22
     number of atomic types    =            3
     number of electrons       =        34.00
     number of Kohn-Sham states=           21
     kinetic-energy cutoff     =      80.0000  Ry
     charge density cutoff     =     320.0000  Ry
     Exchange-correlation= PZ
                           (   1   1   0   0   0   0   0)

     celldm(1)=  11.124512  celldm(2)=   0.000000  celldm(3)=   0.000000
     celldm(4)=   0.828197  celldm(5)=   0.000000  celldm(6)=   0.000000

     crystal axes: (cart. coord. in units of alat)
               a(1) = (   0.293089  -0.169215   0.940991 )  
               a(2) = (   0.000000   0.338430   0.940991 )  
               a(3) = (  -0.293089  -0.169215   0.940991 )  

     reciprocal axes: (cart. coord. in units 2 pi/alat)
               b(1) = (  1.705965 -0.984939  0.354236 )  
               b(2) = (  0.000000  1.969879  0.354236 )  
               b(3) = ( -1.705965 -0.984939  0.354236 )  


     PseudoPot. # 1 for La read from file:
     ./La.UPF
     MD5 check sum: 8e5991bce12d7f16f732aa20d6589152
     Pseudo is Norm-conserving, Zval = 11.0
     Generated in analytical, separable form
     Using radial grid of 1253 points,  7 beta functions with: 
                l(1) =   0
                l(2) =   0
                l(3) =   1
                l(4) =   1
                l(5) =   1
                l(6) =   2
                l(7) =   3

     PseudoPot. # 2 for H  read from file:
     ./H.UPF
     MD5 check sum: df8e43189db5a2d7f03d0dd74d71ce72
     Pseudo is Norm-conserving, Zval =  1.0
     Generated in analytical, separable form
     Using radial grid of  929 points,  0 beta functions with: 

     PseudoPot. # 3 for Y  read from file:
     ./Y.UPF
     MD5 check sum: 28b92b02874aa0fef5f1b1d2b706803c
     Pseudo is Norm-conserving, Zval =  3.0
     Generated in analytical, separable form
     Using radial grid of 1223 points,  7 beta functions with: 
                l(1) =   0
                l(2) =   0
                l(3) =   0
                l(4) =   1
                l(5) =   1
                l(6) =   2
                l(7) =   2

     atomic species   valence    mass     pseudopotential
        La            11.00   138.90547     La( 1.00)
        H              1.00     1.00794     H ( 1.00)
        Y              3.00    88.90585     Y ( 1.00)

     12 Sym. Ops., with inversion, found



   Cartesian axes

     site n.     atom                  positions (alat units)
         1           La  tau(   1) = (   0.0000000  -0.0000000   1.4114872  )
         2           Y   tau(   2) = (   0.0000000   0.0000000   0.0000000  )
         3           H   tau(   3) = (  -0.1430193   0.0825722   2.1620011  )
         4           H   tau(   4) = (   0.0000000  -0.1651445   2.1620011  )
         5           H   tau(   5) = (   0.1430193   0.0825722   2.1620011  )
         6           H   tau(   6) = (  -0.1430193  -0.0825722   0.6609733  )
         7           H   tau(   7) = (   0.0000000   0.1651445   0.6609733  )
         8           H   tau(   8) = (   0.1430193  -0.0825722   0.6609733  )
         9           H   tau(   9) = (   0.1519197  -0.0877109   1.7193890  )
        10           H   tau(  10) = (   0.0000000   0.1754217   1.7193890  )
        11           H   tau(  11) = (  -0.1519197  -0.0877109   1.7193890  )
        12           H   tau(  12) = (   0.1519197   0.0877109   1.1035854  )
        13           H   tau(  13) = (   0.0000000  -0.1754217   1.1035854  )
        14           H   tau(  14) = (  -0.1519197   0.0877109   1.1035854  )
        15           H   tau(  15) = (   0.0000000  -0.0000000   2.2802090  )
        16           H   tau(  16) = (   0.0000000  -0.0000000   0.5427654  )
        17           H   tau(  17) = (   0.0000000  -0.0000000   1.9456472  )
        18           H   tau(  18) = (   0.0000000  -0.0000000   0.8773271  )
        19           H   tau(  19) = (   0.0000000  -0.0000000   2.4752083  )
        20           H   tau(  20) = (   0.0000000  -0.0000000   0.3477661  )
        21           H   tau(  21) = (   0.0000000  -0.0000000   1.0605137  )
        22           H   tau(  22) = (   0.0000000  -0.0000000   1.7624606  )

     number of k points=   728 (tetrahedron method)

     Number of k-points >= 100: set verbosity='high' to print them.

     Dense  grid:    37235 G-vectors     FFT dimensions: (  64,  64,  64)

     Estimated max dynamical RAM per process >      10.67 MB

     Estimated total dynamical RAM >     213.31 MB

     The potential is recalculated from file :
     ./_ph0/LaYH20.q_1/LaYH20.save/charge-density

     Starting wfcs are   20 atomic +    1 random wfcs

     Band Structure Calculation
     Davidson diagonalization with overlap
     c_bands:  1 eigenvalues not converged
     c_bands:  1 eigenvalues not converged
     c_bands:  1 eigenvalues not converged
     c_bands:  1 eigenvalues not converged
     c_bands:  1 eigenvalues not converged
     c_bands:  1 eigenvalues not converged
     c_bands:  1 eigenvalues not converged
     c_bands:  1 eigenvalues not converged
     c_bands:  1 eigenvalues not converged
     c_bands:  1 eigenvalues not converged
     c_bands:  1 eigenvalues not converged
     c_bands:  1 eigenvalues not converged

     ethr =  2.94E-11,  avg # of iterations = 50.5

     total cpu time spent up to now is      195.7 secs

     End of band structure calculation

     Number of k-points >= 100: set verbosity='high' to print the bands.

     the Fermi energy is    16.6364 ev

     Writing config to output data dir ./_ph0/LaYH20.q_1/LaYH20.save/
 
     [dfpt_tetra]  Dos(E_F)[/Ry] :   0.2159144E+02

      Electron-phonon for LaYH20                                                

     bravais-lattice index     =            5
     lattice parameter (alat)  =      11.1245  a.u.
     unit-cell volume          =     385.4953 (a.u.)^3
     number of atoms/cell      =           22
     number of atomic types    =            3
     kinetic-energy cut-off    =      80.0000  Ry
     charge density cut-off    =     320.0000  Ry
     convergence threshold     =      1.0E-08
     beta                      =       0.7000
     number of iterations used =            4
     Exchange-correlation= PZ
                           (   1   1   0   0   0   0   0)


     celldm(1)=   11.12451  celldm(2)=    0.00000  celldm(3)=    0.00000
     celldm(4)=    0.82820  celldm(5)=    0.00000  celldm(6)=    0.00000

     crystal axes: (cart. coord. in units of alat)
               a(1) = (  0.2931 -0.1692  0.9410 )  
               a(2) = (  0.0000  0.3384  0.9410 )  
               a(3) = ( -0.2931 -0.1692  0.9410 )  

     reciprocal axes: (cart. coord. in units 2 pi/alat)
               b(1) = (  1.7060 -0.9849  0.3542 )  
               b(2) = (  0.0000  1.9699  0.3542 )  
               b(3) = ( -1.7060 -0.9849  0.3542 )  


     Atoms inside the unit cell: 

     Cartesian axes

     site n.  atom      mass           positions (alat units)
        1     La 138.9055   tau(    1) = (    0.00000   -0.00000    1.41149  )
        2     Y   88.9059   tau(    2) = (    0.00000    0.00000    0.00000  )
        3     H    1.0079   tau(    3) = (   -0.14302    0.08257    2.16200  )
        4     H    1.0079   tau(    4) = (    0.00000   -0.16514    2.16200  )
        5     H    1.0079   tau(    5) = (    0.14302    0.08257    2.16200  )
        6     H    1.0079   tau(    6) = (   -0.14302   -0.08257    0.66097  )
        7     H    1.0079   tau(    7) = (    0.00000    0.16514    0.66097  )
        8     H    1.0079   tau(    8) = (    0.14302   -0.08257    0.66097  )
        9     H    1.0079   tau(    9) = (    0.15192   -0.08771    1.71939  )
       10     H    1.0079   tau(   10) = (    0.00000    0.17542    1.71939  )
       11     H    1.0079   tau(   11) = (   -0.15192   -0.08771    1.71939  )
       12     H    1.0079   tau(   12) = (    0.15192    0.08771    1.10359  )
       13     H    1.0079   tau(   13) = (    0.00000   -0.17542    1.10359  )
       14     H    1.0079   tau(   14) = (   -0.15192    0.08771    1.10359  )
       15     H    1.0079   tau(   15) = (    0.00000   -0.00000    2.28021  )
       16     H    1.0079   tau(   16) = (    0.00000   -0.00000    0.54277  )
       17     H    1.0079   tau(   17) = (    0.00000   -0.00000    1.94565  )
       18     H    1.0079   tau(   18) = (    0.00000   -0.00000    0.87733  )
       19     H    1.0079   tau(   19) = (    0.00000   -0.00000    2.47521  )
       20     H    1.0079   tau(   20) = (    0.00000   -0.00000    0.34777  )
       21     H    1.0079   tau(   21) = (    0.00000   -0.00000    1.06051  )
       22     H    1.0079   tau(   22) = (    0.00000   -0.00000    1.76246  )

     Computing dynamical matrix for 
                    q = (   0.0000000   0.0000000   0.1328386 )
 
      6 Sym.Ops. (no q -> -q+G )


     G cutoff = 1003.1184  (   1862 G-vectors)     FFT grid: ( 64, 64, 64)
     number of k points=   728

     PseudoPot. # 1 for La read from file:
     ./La.UPF
     MD5 check sum: 8e5991bce12d7f16f732aa20d6589152
     Pseudo is Norm-conserving, Zval = 11.0
     Generated in analytical, separable form
     Using radial grid of 1253 points,  7 beta functions with: 
                l(1) =   0
                l(2) =   0
                l(3) =   1
                l(4) =   1
                l(5) =   1
                l(6) =   2
                l(7) =   3

     PseudoPot. # 2 for H  read from file:
     ./H.UPF
     MD5 check sum: df8e43189db5a2d7f03d0dd74d71ce72
     Pseudo is Norm-conserving, Zval =  1.0
     Generated in analytical, separable form
     Using radial grid of  929 points,  0 beta functions with: 

     PseudoPot. # 3 for Y  read from file:
     ./Y.UPF
     MD5 check sum: 28b92b02874aa0fef5f1b1d2b706803c
     Pseudo is Norm-conserving, Zval =  3.0
     Generated in analytical, separable form
     Using radial grid of 1223 points,  7 beta functions with: 
                l(1) =   0
                l(2) =   0
                l(3) =   0
                l(4) =   1
                l(5) =   1
                l(6) =   2
                l(7) =   2

     Mode symmetry, C_3v (3m)   point group:


     Atomic displacements:
     There are   44 irreducible representations

     Representation     1      1 modes -  To be done

     Representation     2      1 modes -  To be done

     Representation     3      1 modes -  To be done

     Representation     4      1 modes -  To be done

     Representation     5      1 modes -  To be done

     Representation     6      1 modes -  To be done

     Representation     7      1 modes -  To be done

     Representation     8      1 modes -  To be done

     Representation     9      1 modes -  To be done

     Representation    10      1 modes -  To be done

     Representation    11      1 modes -  To be done

     Representation    12      1 modes -  To be done

     Representation    13      1 modes -  To be done

     Representation    14      1 modes -  To be done

     Representation    15      1 modes -  To be done

     Representation    16      1 modes -  To be done

     Representation    17      1 modes -  To be done

     Representation    18      1 modes -  To be done

     Representation    19      1 modes -  To be done

     Representation    20      1 modes -  To be done

     Representation    21      1 modes -  To be done

     Representation    22      1 modes -  To be done

     Representation    23      2 modes -  To be done

     Representation    24      2 modes -  To be done

     Representation    25      2 modes -  To be done

     Representation    26      2 modes -  To be done

     Representation    27      2 modes -  To be done

     Representation    28      2 modes -  To be done

     Representation    29      2 modes -  To be done

     Representation    30      2 modes -  To be done

     Representation    31      2 modes -  To be done

     Representation    32      2 modes -  To be done

     Representation    33      2 modes -  To be done

     Representation    34      2 modes -  To be done

     Representation    35      2 modes -  To be done

     Representation    36      2 modes -  To be done

     Representation    37      2 modes -  To be done

     Representation    38      2 modes -  To be done

     Representation    39      2 modes -  To be done

     Representation    40      2 modes -  To be done

     Representation    41      2 modes -  To be done

     Representation    42      2 modes -  To be done

     Representation    43      2 modes -  To be done

     Representation    44      2 modes -  To be done


     PHONON       :   3m10.57s CPU   3m17.48s WALL

     Reading dVscf from file dv
     Reading dynamics matrix from file LaYH20.dyn1

     Diagonalizing the dynamical matrix

     q = (    0.000000000   0.000000000   0.132838614 ) 

 **************************************************************************
     freq (    1) =    -109.275208 [THz] =   -3645.028596 [cm-1]
     freq (    2) =    -109.275208 [THz] =   -3645.028590 [cm-1]
     freq (    3) =     -96.387364 [THz] =   -3215.136402 [cm-1]
     freq (    4) =     -96.387364 [THz] =   -3215.136399 [cm-1]
     freq (    5) =     -89.024271 [THz] =   -2969.530047 [cm-1]
     freq (    6) =     -89.024271 [THz] =   -2969.530032 [cm-1]
     freq (    7) =     -85.973217 [THz] =   -2867.757841 [cm-1]
     freq (    8) =     -85.973217 [THz] =   -2867.757837 [cm-1]
     freq (    9) =     -81.551157 [THz] =   -2720.253783 [cm-1]
     freq (   10) =     -81.551156 [THz] =   -2720.253761 [cm-1]
     freq (   11) =     -61.833327 [THz] =   -2062.537768 [cm-1]
     freq (   12) =     -61.833325 [THz] =   -2062.537710 [cm-1]
     freq (   13) =     -53.214459 [THz] =   -1775.043275 [cm-1]
     freq (   14) =     -53.214458 [THz] =   -1775.043264 [cm-1]
     freq (   15) =     -50.225893 [THz] =   -1675.355467 [cm-1]
     freq (   16) =     -50.225893 [THz] =   -1675.355466 [cm-1]
     freq (   17) =     -41.891454 [THz] =   -1397.348498 [cm-1]
     freq (   18) =     -41.891453 [THz] =   -1397.348457 [cm-1]
     freq (   19) =     -41.741868 [THz] =   -1392.358828 [cm-1]
     freq (   20) =     -41.134213 [THz] =   -1372.089657 [cm-1]
     freq (   21) =     -41.134213 [THz] =   -1372.089651 [cm-1]
     freq (   22) =     -40.282254 [THz] =   -1343.671368 [cm-1]
     freq (   23) =     -28.071498 [THz] =    -936.364378 [cm-1]
     freq (   24) =     -28.071497 [THz] =    -936.364338 [cm-1]
     freq (   25) =     -23.057637 [THz] =    -769.119972 [cm-1]
     freq (   26) =     -23.057633 [THz] =    -769.119858 [cm-1]
     freq (   27) =      -7.609820 [THz] =    -253.836286 [cm-1]
     freq (   28) =       2.472678 [THz] =      82.479672 [cm-1]
     freq (   29) =       2.472678 [THz] =      82.479672 [cm-1]
     freq (   30) =       4.500863 [THz] =     150.132626 [cm-1]
     freq (   31) =      11.658128 [THz] =     388.873279 [cm-1]
     freq (   32) =      13.333779 [THz] =     444.766999 [cm-1]
     freq (   33) =      13.333779 [THz] =     444.767001 [cm-1]
     freq (   34) =      15.361781 [THz] =     512.413847 [cm-1]
     freq (   35) =      15.361787 [THz] =     512.414071 [cm-1]
     freq (   36) =      19.901752 [THz] =     663.850989 [cm-1]
     freq (   37) =      20.230201 [THz] =     674.806886 [cm-1]
     freq (   38) =      20.230203 [THz] =     674.806920 [cm-1]
     freq (   39) =      22.579919 [THz] =     753.185033 [cm-1]
     freq (   40) =      24.669642 [THz] =     822.890670 [cm-1]
     freq (   41) =      24.669643 [THz] =     822.890699 [cm-1]
     freq (   42) =      26.509002 [THz] =     884.245112 [cm-1]
     freq (   43) =      26.795897 [THz] =     893.814910 [cm-1]
     freq (   44) =      27.339944 [THz] =     911.962376 [cm-1]
     freq (   45) =      30.031422 [THz] =    1001.740401 [cm-1]
     freq (   46) =      30.031422 [THz] =    1001.740427 [cm-1]
     freq (   47) =      31.532897 [THz] =    1051.824213 [cm-1]
     freq (   48) =      31.532897 [THz] =    1051.824235 [cm-1]
     freq (   49) =      31.961515 [THz] =    1066.121396 [cm-1]
     freq (   50) =      32.088240 [THz] =    1070.348482 [cm-1]
     freq (   51) =      32.088241 [THz] =    1070.348521 [cm-1]
     freq (   52) =      32.807051 [THz] =    1094.325412 [cm-1]
     freq (   53) =      35.448427 [THz] =    1182.432261 [cm-1]
     freq (   54) =      35.875139 [THz] =    1196.665840 [cm-1]
     freq (   55) =      35.875140 [THz] =    1196.665873 [cm-1]
     freq (   56) =      36.975951 [THz] =    1233.384968 [cm-1]
     freq (   57) =      36.975953 [THz] =    1233.385028 [cm-1]
     freq (   58) =      39.825126 [THz] =    1328.423207 [cm-1]
     freq (   59) =      43.168332 [THz] =    1439.940566 [cm-1]
     freq (   60) =      45.620583 [THz] =    1521.738863 [cm-1]
     freq (   61) =      51.522211 [THz] =    1718.595972 [cm-1]
     freq (   62) =      53.929001 [THz] =    1798.877826 [cm-1]
     freq (   63) =      55.851951 [THz] =    1863.020546 [cm-1]
     freq (   64) =      58.106114 [THz] =    1938.211347 [cm-1]
     freq (   65) =      61.105877 [THz] =    2038.272667 [cm-1]
     freq (   66) =      69.287658 [THz] =    2311.187499 [cm-1]
 **************************************************************************

     [elph_tetra]   Lowest band which contains FS :         15
     [elph_tetra]  Highest band which contains FS :         20
     [elph_tetra]    # of bands which contains FS :          6
 
     Tetrahedron method
     DOS = 10.795721 states/spin/Ry/Unit Cell at Ef= 16.636401 eV
     double delta at Ef =242.992245
     lambda(    1)=  0.0000   gamma=    0.00 GHz
     lambda(    2)=  0.0000   gamma=    0.00 GHz
     lambda(    3)=  0.0000   gamma=    0.00 GHz
     lambda(    4)=  0.0000   gamma=    0.00 GHz
     lambda(    5)=  0.0000   gamma=    0.00 GHz
     lambda(    6)=  0.0000   gamma=    0.00 GHz
     lambda(    7)=  0.0000   gamma=    0.00 GHz
     lambda(    8)=  0.0000   gamma=    0.00 GHz
     lambda(    9)=  0.0000   gamma=    0.00 GHz
     lambda(   10)=  0.0000   gamma=    0.00 GHz
     lambda(   11)=  0.0000   gamma=    0.00 GHz
     lambda(   12)=  0.0000   gamma=    0.00 GHz
     lambda(   13)=  0.0000   gamma=    0.00 GHz
     lambda(   14)=  0.0000   gamma=    0.00 GHz
     lambda(   15)=  0.0000   gamma=    0.00 GHz
     lambda(   16)=  0.0000   gamma=    0.00 GHz
     lambda(   17)=  0.0000   gamma=    0.00 GHz
     lambda(   18)=  0.0000   gamma=    0.00 GHz
     lambda(   19)=  0.0000   gamma=    0.00 GHz
     lambda(   20)=  0.0000   gamma=    0.00 GHz
     lambda(   21)=  0.0000   gamma=    0.00 GHz
     lambda(   22)=  0.0000   gamma=    0.00 GHz
     lambda(   23)=  0.0000   gamma=    0.00 GHz
     lambda(   24)=  0.0000   gamma=    0.00 GHz
     lambda(   25)=  0.0000   gamma=    0.00 GHz
     lambda(   26)=  0.0000   gamma=    0.00 GHz
     lambda(   27)=  0.0000   gamma=    0.00 GHz
     lambda(   28)=  0.1375   gamma=    8.67 GHz
     lambda(   29)=  0.1375   gamma=    8.67 GHz
     lambda(   30)=  0.0747   gamma=   15.59 GHz
     lambda(   31)=  0.2096   gamma=  293.62 GHz
     lambda(   32)=  0.0056   gamma=   10.20 GHz
     lambda(   33)=  0.0056   gamma=   10.20 GHz
     lambda(   34)=  0.0362   gamma=   88.07 GHz
     lambda(   35)=  0.0362   gamma=   88.07 GHz
     lambda(   36)=  0.0840   gamma=  343.10 GHz
     lambda(   37)=  0.0384   gamma=  162.07 GHz
     lambda(   38)=  0.0384   gamma=  162.07 GHz
     lambda(   39)=  0.0279   gamma=  146.58 GHz
     lambda(   40)=  0.0327   gamma=  205.42 GHz
     lambda(   41)=  0.0327   gamma=  205.42 GHz
     lambda(   42)=  0.0434   gamma=  314.48 GHz
     lambda(   43)=  0.0409   gamma=  302.61 GHz
     lambda(   44)=  0.0266   gamma=  205.14 GHz
     lambda(   45)=  0.0086   gamma=   80.36 GHz
     lambda(   46)=  0.0086   gamma=   80.36 GHz
     lambda(   47)=  0.0061   gamma=   62.94 GHz
     lambda(   48)=  0.0061   gamma=   62.94 GHz
     lambda(   49)=  0.0084   gamma=   87.95 GHz
     lambda(   50)=  0.0073   gamma=   77.28 GHz
     lambda(   51)=  0.0073   gamma=   77.28 GHz
     lambda(   52)=  0.0402   gamma=  446.13 GHz
     lambda(   53)=  0.0305   gamma=  395.50 GHz
     lambda(   54)=  0.0158   gamma=  210.22 GHz
     lambda(   55)=  0.0158   gamma=  210.22 GHz
     lambda(   56)=  0.0052   gamma=   73.63 GHz
     lambda(   57)=  0.0052   gamma=   73.63 GHz
     lambda(   58)=  0.0152   gamma=  248.26 GHz
     lambda(   59)=  0.0176   gamma=  338.84 GHz
     lambda(   60)=  0.0131   gamma=  280.11 GHz
     lambda(   61)=  0.0079   gamma=  216.36 GHz
     lambda(   62)=  0.0237   gamma=  709.62 GHz
     lambda(   63)=  0.0021   gamma=   67.84 GHz
     lambda(   64)=  0.0080   gamma=  280.16 GHz
     lambda(   65)=  0.0053   gamma=  205.57 GHz
     lambda(   66)=  0.0209   gamma= 1033.79 GHz
 
     Number of q in the star =    2
     List of q in the star:
          1   0.000000000   0.000000000   0.132838614
          2   0.000000000   0.000000000  -0.132838614

     Calculation of q =   -0.4264912  -0.2462348   0.2213977
     [opt_tetra]  Optimized tetrahedron method is used.
 
     Parallelization info
     --------------------
     sticks:   dense  smooth     PW     G-vecs:    dense   smooth      PW
     Min          88      88     29                 1861     1861     349
     Max          89      89     30                 1863     1863     352
     Sum        1767    1767    581                37235    37235    7013
 
     Using Slab Decomposition
 

     Title: 
      Electron-phonon for LaYH20                                                


     bravais-lattice index     =            5
     lattice parameter (alat)  =      11.1245  a.u.
     unit-cell volume          =     385.4953 (a.u.)^3
     number of atoms/cell      =           22
     number of atomic types    =            3
     number of electrons       =        34.00
     number of Kohn-Sham states=           21
     kinetic-energy cutoff     =      80.0000  Ry
     charge density cutoff     =     320.0000  Ry
     Exchange-correlation= PZ
                           (   1   1   0   0   0   0   0)

     celldm(1)=  11.124512  celldm(2)=   0.000000  celldm(3)=   0.000000
     celldm(4)=   0.828197  celldm(5)=   0.000000  celldm(6)=   0.000000

     crystal axes: (cart. coord. in units of alat)
               a(1) = (   0.293089  -0.169215   0.940991 )  
               a(2) = (   0.000000   0.338430   0.940991 )  
               a(3) = (  -0.293089  -0.169215   0.940991 )  

     reciprocal axes: (cart. coord. in units 2 pi/alat)
               b(1) = (  1.705965 -0.984939  0.354236 )  
               b(2) = (  0.000000  1.969879  0.354236 )  
               b(3) = ( -1.705965 -0.984939  0.354236 )  


     PseudoPot. # 1 for La read from file:
     ./La.UPF
     MD5 check sum: 8e5991bce12d7f16f732aa20d6589152
     Pseudo is Norm-conserving, Zval = 11.0
     Generated in analytical, separable form
     Using radial grid of 1253 points,  7 beta functions with: 
                l(1) =   0
                l(2) =   0
                l(3) =   1
                l(4) =   1
                l(5) =   1
                l(6) =   2
                l(7) =   3

     PseudoPot. # 2 for H  read from file:
     ./H.UPF
     MD5 check sum: df8e43189db5a2d7f03d0dd74d71ce72
     Pseudo is Norm-conserving, Zval =  1.0
     Generated in analytical, separable form
     Using radial grid of  929 points,  0 beta functions with: 

     PseudoPot. # 3 for Y  read from file:
     ./Y.UPF
     MD5 check sum: 28b92b02874aa0fef5f1b1d2b706803c
     Pseudo is Norm-conserving, Zval =  3.0
     Generated in analytical, separable form
     Using radial grid of 1223 points,  7 beta functions with: 
                l(1) =   0
                l(2) =   0
                l(3) =   0
                l(4) =   1
                l(5) =   1
                l(6) =   2
                l(7) =   2

     atomic species   valence    mass     pseudopotential
        La            11.00   138.90547     La( 1.00)
        H              1.00     1.00794     H ( 1.00)
        Y              3.00    88.90585     Y ( 1.00)

     12 Sym. Ops., with inversion, found



   Cartesian axes

     site n.     atom                  positions (alat units)
         1           La  tau(   1) = (   0.0000000  -0.0000000   1.4114872  )
         2           Y   tau(   2) = (   0.0000000   0.0000000   0.0000000  )
         3           H   tau(   3) = (  -0.1430193   0.0825722   2.1620011  )
         4           H   tau(   4) = (   0.0000000  -0.1651445   2.1620011  )
         5           H   tau(   5) = (   0.1430193   0.0825722   2.1620011  )
         6           H   tau(   6) = (  -0.1430193  -0.0825722   0.6609733  )
         7           H   tau(   7) = (   0.0000000   0.1651445   0.6609733  )
         8           H   tau(   8) = (   0.1430193  -0.0825722   0.6609733  )
         9           H   tau(   9) = (   0.1519197  -0.0877109   1.7193890  )
        10           H   tau(  10) = (   0.0000000   0.1754217   1.7193890  )
        11           H   tau(  11) = (  -0.1519197  -0.0877109   1.7193890  )
        12           H   tau(  12) = (   0.1519197   0.0877109   1.1035854  )
        13           H   tau(  13) = (   0.0000000  -0.1754217   1.1035854  )
        14           H   tau(  14) = (  -0.1519197   0.0877109   1.1035854  )
        15           H   tau(  15) = (   0.0000000  -0.0000000   2.2802090  )
        16           H   tau(  16) = (   0.0000000  -0.0000000   0.5427654  )
        17           H   tau(  17) = (   0.0000000  -0.0000000   1.9456472  )
        18           H   tau(  18) = (   0.0000000  -0.0000000   0.8773271  )
        19           H   tau(  19) = (   0.0000000  -0.0000000   2.4752083  )
        20           H   tau(  20) = (   0.0000000  -0.0000000   0.3477661  )
        21           H   tau(  21) = (   0.0000000  -0.0000000   1.0605137  )
        22           H   tau(  22) = (   0.0000000  -0.0000000   1.7624606  )

     number of k points=  1872 (tetrahedron method)

     Number of k-points >= 100: set verbosity='high' to print them.

     Dense  grid:    37235 G-vectors     FFT dimensions: (  64,  64,  64)

     Estimated max dynamical RAM per process >      10.77 MB

     Estimated total dynamical RAM >     215.39 MB

     The potential is recalculated from file :
     ./_ph0/LaYH20.q_2/LaYH20.save/charge-density

     Starting wfcs are   20 atomic +    1 random wfcs

     Band Structure Calculation
     Davidson diagonalization with overlap
     c_bands:  1 eigenvalues not converged
     c_bands:  1 eigenvalues not converged
     c_bands:  1 eigenvalues not converged
     c_bands:  1 eigenvalues not converged
     c_bands:  1 eigenvalues not converged
     c_bands:  1 eigenvalues not converged
     c_bands:  1 eigenvalues not converged
     c_bands:  1 eigenvalues not converged
     c_bands:  1 eigenvalues not converged
     c_bands:  1 eigenvalues not converged
     c_bands:  1 eigenvalues not converged
     c_bands:  1 eigenvalues not converged
     c_bands:  1 eigenvalues not converged
     c_bands:  1 eigenvalues not converged
     c_bands:  1 eigenvalues not converged
     c_bands:  1 eigenvalues not converged
     c_bands:  1 eigenvalues not converged
     c_bands:  1 eigenvalues not converged
     c_bands:  1 eigenvalues not converged
     c_bands:  1 eigenvalues not converged
     c_bands:  1 eigenvalues not converged
     c_bands:  1 eigenvalues not converged
     c_bands:  1 eigenvalues not converged
     c_bands:  1 eigenvalues not converged
     c_bands:  1 eigenvalues not converged
     c_bands:  1 eigenvalues not converged

     ethr =  2.94E-11,  avg # of iterations = 51.0

     total cpu time spent up to now is      669.1 secs

     End of band structure calculation

     Number of k-points >= 100: set verbosity='high' to print the bands.

     the Fermi energy is    16.6364 ev

     Writing config to output data dir ./_ph0/LaYH20.q_2/LaYH20.save/
 
     [dfpt_tetra]  Dos(E_F)[/Ry] :   0.2159144E+02

      Electron-phonon for LaYH20                                                

     bravais-lattice index     =            5
     lattice parameter (alat)  =      11.1245  a.u.
     unit-cell volume          =     385.4953 (a.u.)^3
     number of atoms/cell      =           22
     number of atomic types    =            3
     kinetic-energy cut-off    =      80.0000  Ry
     charge density cut-off    =     320.0000  Ry
     convergence threshold     =      1.0E-08
     beta                      =       0.7000
     number of iterations used =            4
     Exchange-correlation= PZ
                           (   1   1   0   0   0   0   0)


     celldm(1)=   11.12451  celldm(2)=    0.00000  celldm(3)=    0.00000
     celldm(4)=    0.82820  celldm(5)=    0.00000  celldm(6)=    0.00000

     crystal axes: (cart. coord. in units of alat)
               a(1) = (  0.2931 -0.1692  0.9410 )  
               a(2) = (  0.0000  0.3384  0.9410 )  
               a(3) = ( -0.2931 -0.1692  0.9410 )  

     reciprocal axes: (cart. coord. in units 2 pi/alat)
               b(1) = (  1.7060 -0.9849  0.3542 )  
               b(2) = (  0.0000  1.9699  0.3542 )  
               b(3) = ( -1.7060 -0.9849  0.3542 )  


     Atoms inside the unit cell: 

     Cartesian axes

     site n.  atom      mass           positions (alat units)
        1     La 138.9055   tau(    1) = (    0.00000   -0.00000    1.41149  )
        2     Y   88.9059   tau(    2) = (    0.00000    0.00000    0.00000  )
        3     H    1.0079   tau(    3) = (   -0.14302    0.08257    2.16200  )
        4     H    1.0079   tau(    4) = (    0.00000   -0.16514    2.16200  )
        5     H    1.0079   tau(    5) = (    0.14302    0.08257    2.16200  )
        6     H    1.0079   tau(    6) = (   -0.14302   -0.08257    0.66097  )
        7     H    1.0079   tau(    7) = (    0.00000    0.16514    0.66097  )
        8     H    1.0079   tau(    8) = (    0.14302   -0.08257    0.66097  )
        9     H    1.0079   tau(    9) = (    0.15192   -0.08771    1.71939  )
       10     H    1.0079   tau(   10) = (    0.00000    0.17542    1.71939  )
       11     H    1.0079   tau(   11) = (   -0.15192   -0.08771    1.71939  )
       12     H    1.0079   tau(   12) = (    0.15192    0.08771    1.10359  )
       13     H    1.0079   tau(   13) = (    0.00000   -0.17542    1.10359  )
       14     H    1.0079   tau(   14) = (   -0.15192    0.08771    1.10359  )
       15     H    1.0079   tau(   15) = (    0.00000   -0.00000    2.28021  )
       16     H    1.0079   tau(   16) = (    0.00000   -0.00000    0.54277  )
       17     H    1.0079   tau(   17) = (    0.00000   -0.00000    1.94565  )
       18     H    1.0079   tau(   18) = (    0.00000   -0.00000    0.87733  )
       19     H    1.0079   tau(   19) = (    0.00000   -0.00000    2.47521  )
       20     H    1.0079   tau(   20) = (    0.00000   -0.00000    0.34777  )
       21     H    1.0079   tau(   21) = (    0.00000   -0.00000    1.06051  )
       22     H    1.0079   tau(   22) = (    0.00000   -0.00000    1.76246  )

     Computing dynamical matrix for 
                    q = (  -0.4264912  -0.2462348   0.2213977 )
 
      2 Sym.Ops. (no q -> -q+G )


     G cutoff = 1003.1184  (   1862 G-vectors)     FFT grid: ( 64, 64, 64)
     number of k points=  1872

     PseudoPot. # 1 for La read from file:
     ./La.UPF
     MD5 check sum: 8e5991bce12d7f16f732aa20d6589152
     Pseudo is Norm-conserving, Zval = 11.0
     Generated in analytical, separable form
     Using radial grid of 1253 points,  7 beta functions with: 
                l(1) =   0
                l(2) =   0
                l(3) =   1
                l(4) =   1
                l(5) =   1
                l(6) =   2
                l(7) =   3

     PseudoPot. # 2 for H  read from file:
     ./H.UPF
     MD5 check sum: df8e43189db5a2d7f03d0dd74d71ce72
     Pseudo is Norm-conserving, Zval =  1.0
     Generated in analytical, separable form
     Using radial grid of  929 points,  0 beta functions with: 

     PseudoPot. # 3 for Y  read from file:
     ./Y.UPF
     MD5 check sum: 28b92b02874aa0fef5f1b1d2b706803c
     Pseudo is Norm-conserving, Zval =  3.0
     Generated in analytical, separable form
     Using radial grid of 1223 points,  7 beta functions with: 
                l(1) =   0
                l(2) =   0
                l(3) =   0
                l(4) =   1
                l(5) =   1
                l(6) =   2
                l(7) =   2

     Mode symmetry, C_s (m)     point group:


     Atomic displacements:
     There are   66 irreducible representations

     Representation     1      1 modes -  To be done

     Representation     2      1 modes -  To be done

     Representation     3      1 modes -  To be done

     Representation     4      1 modes -  To be done

     Representation     5      1 modes -  To be done

     Representation     6      1 modes -  To be done

     Representation     7      1 modes -  To be done

     Representation     8      1 modes -  To be done

     Representation     9      1 modes -  To be done

     Representation    10      1 modes -  To be done

     Representation    11      1 modes -  To be done

     Representation    12      1 modes -  To be done

     Representation    13      1 modes -  To be done

     Representation    14      1 modes -  To be done

     Representation    15      1 modes -  To be done

     Representation    16      1 modes -  To be done

     Representation    17      1 modes -  To be done

     Representation    18      1 modes -  To be done

     Representation    19      1 modes -  To be done

     Representation    20      1 modes -  To be done

     Representation    21      1 modes -  To be done

     Representation    22      1 modes -  To be done

     Representation    23      1 modes -  To be done

     Representation    24      1 modes -  To be done

     Representation    25      1 modes -  To be done

     Representation    26      1 modes -  To be done

     Representation    27      1 modes -  To be done

     Representation    28      1 modes -  To be done

     Representation    29      1 modes -  To be done

     Representation    30      1 modes -  To be done

     Representation    31      1 modes -  To be done

     Representation    32      1 modes -  To be done

     Representation    33      1 modes -  To be done

     Representation    34      1 modes -  To be done

     Representation    35      1 modes -  To be done

     Representation    36      1 modes -  To be done

     Representation    37      1 modes -  To be done

     Representation    38      1 modes -  To be done

     Representation    39      1 modes -  To be done

     Representation    40      1 modes -  To be done

     Representation    41      1 modes -  To be done

     Representation    42      1 modes -  To be done

     Representation    43      1 modes -  To be done

     Representation    44      1 modes -  To be done

     Representation    45      1 modes -  To be done

     Representation    46      1 modes -  To be done

     Representation    47      1 modes -  To be done

     Representation    48      1 modes -  To be done

     Representation    49      1 modes -  To be done

     Representation    50      1 modes -  To be done

     Representation    51      1 modes -  To be done

     Representation    52      1 modes -  To be done

     Representation    53      1 modes -  To be done

     Representation    54      1 modes -  To be done

     Representation    55      1 modes -  To be done

     Representation    56      1 modes -  To be done

     Representation    57      1 modes -  To be done

     Representation    58      1 modes -  To be done

     Representation    59      1 modes -  To be done

     Representation    60      1 modes -  To be done

     Representation    61      1 modes -  To be done

     Representation    62      1 modes -  To be done

     Representation    63      1 modes -  To be done

     Representation    64      1 modes -  To be done

     Representation    65      1 modes -  To be done

     Representation    66      1 modes -  To be done


     PHONON       :  14m25.57s CPU  14m53.12s WALL

     Reading dVscf from file dv
     Reading dynamics matrix from file LaYH20.dyn2

     Diagonalizing the dynamical matrix

     q = (   -0.426491219  -0.246234820   0.221397690 ) 

 **************************************************************************
     freq (    1) =     -85.668684 [THz] =   -2857.599700 [cm-1]
     freq (    2) =     -70.439015 [THz] =   -2349.592622 [cm-1]
     freq (    3) =     -62.683673 [THz] =   -2090.902261 [cm-1]
     freq (    4) =     -58.045327 [THz] =   -1936.183702 [cm-1]
     freq (    5) =     -54.051617 [THz] =   -1802.967882 [cm-1]
     freq (    6) =     -48.709861 [THz] =   -1624.786055 [cm-1]
     freq (    7) =     -43.997849 [THz] =   -1467.610279 [cm-1]
     freq (    8) =     -35.246711 [THz] =   -1175.703726 [cm-1]
     freq (    9) =     -32.638878 [THz] =   -1088.715770 [cm-1]
     freq (   10) =     -30.236627 [THz] =   -1008.585302 [cm-1]
     freq (   11) =     -27.528688 [THz] =    -918.258176 [cm-1]
     freq (   12) =     -22.797816 [THz] =    -760.453300 [cm-1]
     freq (   13) =     -15.837286 [THz] =    -528.274996 [cm-1]
     freq (   14) =     -12.516456 [THz] =    -417.504047 [cm-1]
     freq (   15) =      -9.247328 [THz] =    -308.457645 [cm-1]
     freq (   16) =      -6.670072 [THz] =    -222.489646 [cm-1]
     freq (   17) =      -2.536018 [THz] =     -84.592465 [cm-1]
     freq (   18) =      -1.727580 [THz] =     -57.625874 [cm-1]
     freq (   19) =       2.938000 [THz] =      98.001141 [cm-1]
     freq (   20) =       3.895531 [THz] =     129.940935 [cm-1]
     freq (   21) =       8.716331 [THz] =     290.745512 [cm-1]
     freq (   22) =      10.692249 [THz] =     356.655038 [cm-1]
     freq (   23) =      13.877785 [THz] =     462.913079 [cm-1]
     freq (   24) =      15.809300 [THz] =     527.341469 [cm-1]
     freq (   25) =      18.909653 [THz] =     630.758115 [cm-1]
     freq (   26) =      21.633813 [THz] =     721.626340 [cm-1]
     freq (   27) =      22.476293 [THz] =     749.728423 [cm-1]
     freq (   28) =      24.504665 [THz] =     817.387646 [cm-1]
     freq (   29) =      25.340537 [THz] =     845.269342 [cm-1]
     freq (   30) =      26.156426 [THz] =     872.484466 [cm-1]
     freq (   31) =      26.261575 [THz] =     875.991855 [cm-1]
     freq (   32) =      27.425833 [THz] =     914.827312 [cm-1]
     freq (   33) =      29.139647 [THz] =     971.993983 [cm-1]
     freq (   34) =      30.679938 [THz] =    1023.372576 [cm-1]
     freq (   35) =      30.777481 [THz] =    1026.626252 [cm-1]
     freq (   36) =      31.618717 [THz] =    1054.686884 [cm-1]
     freq (   37) =      31.972183 [THz] =    1066.477224 [cm-1]
     freq (   38) =      32.154768 [THz] =    1072.567624 [cm-1]
     freq (   39) =      33.597421 [THz] =    1120.689326 [cm-1]
     freq (   40) =      33.810643 [THz] =    1127.801640 [cm-1]
     freq (   41) =      34.536385 [THz] =    1152.009812 [cm-1]
     freq (   42) =      35.699874 [THz] =    1190.819619 [cm-1]
     freq (   43) =      37.697118 [THz] =    1257.440496 [cm-1]
     freq (   44) =      37.760491 [THz] =    1259.554402 [cm-1]
     freq (   45) =      39.538584 [THz] =    1318.865190 [cm-1]
     freq (   46) =      40.510488 [THz] =    1351.284425 [cm-1]
     freq (   47) =      40.828639 [THz] =    1361.896809 [cm-1]
     freq (   48) =      42.153977 [THz] =    1406.105303 [cm-1]
     freq (   49) =      42.645400 [THz] =    1422.497442 [cm-1]
     freq (   50) =      43.191814 [THz] =    1440.723832 [cm-1]
     freq (   51) =      45.006311 [THz] =    1501.248943 [cm-1]
     freq (   52) =      45.508239 [THz] =    1517.991448 [cm-1]
     freq (   53) =      46.643173 [THz] =    1555.848765 [cm-1]
     freq (   54) =      47.320620 [THz] =    1578.445989 [cm-1]
     freq (   55) =      49.050117 [THz] =    1636.135798 [cm-1]
     freq (   56) =      49.229421 [THz] =    1642.116740 [cm-1]
     freq (   57) =      51.068917 [THz] =    1703.475718 [cm-1]
     freq (   58) =      53.655819 [THz] =    1789.765458 [cm-1]
     freq (   59) =      54.112829 [THz] =    1805.009696 [cm-1]
     freq (   60) =      55.269212 [THz] =    1843.582476 [cm-1]
     freq (   61) =      55.919240 [THz] =    1865.265081 [cm-1]
     freq (   62) =      56.863259 [THz] =    1896.754169 [cm-1]
     freq (   63) =      65.112197 [THz] =    2171.909096 [cm-1]
     freq (   64) =      70.253045 [THz] =    2343.389340 [cm-1]
     freq (   65) =      85.059830 [THz] =    2837.290521 [cm-1]
     freq (   66) =      96.925315 [THz] =    3233.080505 [cm-1]
 **************************************************************************

     [elph_tetra]   Lowest band which contains FS :         15
     [elph_tetra]  Highest band which contains FS :         20
     [elph_tetra]    # of bands which contains FS :          6
 
     Tetrahedron method
     DOS = 10.795721 states/spin/Ry/Unit Cell at Ef= 16.636401 eV
     double delta at Ef =222.116204
     lambda(    1)=  0.0000   gamma=    0.00 GHz
     lambda(    2)=  0.0000   gamma=    0.00 GHz
     lambda(    3)=  0.0000   gamma=    0.00 GHz
     lambda(    4)=  0.0000   gamma=    0.00 GHz
     lambda(    5)=  0.0000   gamma=    0.00 GHz
     lambda(    6)=  0.0000   gamma=    0.00 GHz
     lambda(    7)=  0.0000   gamma=    0.00 GHz
     lambda(    8)=  0.0000   gamma=    0.00 GHz
     lambda(    9)=  0.0000   gamma=    0.00 GHz
     lambda(   10)=  0.0000   gamma=    0.00 GHz
     lambda(   11)=  0.0000   gamma=    0.00 GHz
     lambda(   12)=  0.0000   gamma=    0.00 GHz
     lambda(   13)=  0.0000   gamma=    0.00 GHz
     lambda(   14)=  0.0000   gamma=    0.00 GHz
     lambda(   15)=  0.0000   gamma=    0.00 GHz
     lambda(   16)=  0.0000   gamma=    0.00 GHz
     lambda(   17)=  0.0000   gamma=    0.00 GHz
     lambda(   18)=  0.0000   gamma=    0.00 GHz
     lambda(   19)=  0.2739   gamma=   24.37 GHz
     lambda(   20)=  0.1727   gamma=   27.02 GHz
     lambda(   21)=  0.0707   gamma=   55.40 GHz
     lambda(   22)=  0.3833   gamma=  451.81 GHz
     lambda(   23)=  0.2189   gamma=  434.64 GHz
     lambda(   24)=  0.1954   gamma=  503.52 GHz
     lambda(   25)=  0.0884   gamma=  325.81 GHz
     lambda(   26)=  0.0795   gamma=  383.66 GHz
     lambda(   27)=  0.0618   gamma=  321.97 GHz
     lambda(   28)=  0.0129   gamma=   79.74 GHz
     lambda(   29)=  0.0453   gamma=  300.11 GHz
     lambda(   30)=  0.0894   gamma=  630.71 GHz
     lambda(   31)=  0.0147   gamma=  104.22 GHz
     lambda(   32)=  0.0484   gamma=  375.30 GHz
     lambda(   33)=  0.0423   gamma=  370.59 GHz
     lambda(   34)=  0.0505   gamma=  489.56 GHz
     lambda(   35)=  0.0517   gamma=  505.36 GHz
     lambda(   36)=  0.0252   gamma=  259.43 GHz
     lambda(   37)=  0.0177   gamma=  186.88 GHz
     lambda(   38)=  0.0507   gamma=  540.34 GHz
     lambda(   39)=  0.0425   gamma=  494.67 GHz
     lambda(   40)=  0.0165   gamma=  194.31 GHz
     lambda(   41)=  0.0106   gamma=  130.95 GHz
     lambda(   42)=  0.0319   gamma=  418.58 GHz
     lambda(   43)=  0.0408   gamma=  598.07 GHz
     lambda(   44)=  0.0211   gamma=  309.74 GHz
     lambda(   45)=  0.0142   gamma=  228.89 GHz
     lambda(   46)=  0.0221   gamma=  374.07 GHz
     lambda(   47)=  0.0356   gamma=  611.15 GHz
     lambda(   48)=  0.0323   gamma=  591.45 GHz
     lambda(   49)=  0.0121   gamma=  227.41 GHz
     lambda(   50)=  0.0247   gamma=  474.88 GHz
     lambda(   51)=  0.0104   gamma=  216.54 GHz
     lambda(   52)=  0.0229   gamma=  489.05 GHz
     lambda(   53)=  0.0105   gamma=  235.08 GHz
     lambda(   54)=  0.0206   gamma=  475.97 GHz
     lambda(   55)=  0.0228   gamma=  565.94 GHz
     lambda(   56)=  0.0076   gamma=  189.97 GHz
     lambda(   57)=  0.0144   gamma=  388.04 GHz
     lambda(   58)=  0.0141   gamma=  418.21 GHz
     lambda(   59)=  0.0074   gamma=  224.12 GHz
     lambda(   60)=  0.0176   gamma=  553.39 GHz
     lambda(   61)=  0.0110   gamma=  354.86 GHz
     lambda(   62)=  0.0066   gamma=  218.94 GHz
     lambda(   63)=  0.0105   gamma=  459.79 GHz
     lambda(   64)=  0.0054   gamma=  274.02 GHz
     lambda(   65)=  0.0035   gamma=  264.30 GHz
     lambda(   66)=  0.0029   gamma=  282.27 GHz
 
     Number of q in the star =    6
     List of q in the star:
          1  -0.426491219  -0.246234820   0.221397690
          2  -0.000000000   0.492469640   0.221397690
          3   0.426491219  -0.246234820   0.221397690
          4   0.426491219   0.246234820  -0.221397690
          5  -0.426491219   0.246234820  -0.221397690
          6   0.000000000  -0.492469640  -0.221397690

     Calculation of q =    0.8529824   0.4924696  -0.0442795
     [opt_tetra]  Optimized tetrahedron method is used.
 
     Parallelization info
     --------------------
     sticks:   dense  smooth     PW     G-vecs:    dense   smooth      PW
     Min          88      88     30                 1861     1861     378
     Max          89      89     31                 1863     1863     380
     Sum        1767    1767    609                37235    37235    7583
 
     Using Slab Decomposition
 

     Title: 
      Electron-phonon for LaYH20                                                


     bravais-lattice index     =            5
     lattice parameter (alat)  =      11.1245  a.u.
     unit-cell volume          =     385.4953 (a.u.)^3
     number of atoms/cell      =           22
     number of atomic types    =            3
     number of electrons       =        34.00
     number of Kohn-Sham states=           21
     kinetic-energy cutoff     =      80.0000  Ry
     charge density cutoff     =     320.0000  Ry
     Exchange-correlation= PZ
                           (   1   1   0   0   0   0   0)

     celldm(1)=  11.124512  celldm(2)=   0.000000  celldm(3)=   0.000000
     celldm(4)=   0.828197  celldm(5)=   0.000000  celldm(6)=   0.000000

     crystal axes: (cart. coord. in units of alat)
               a(1) = (   0.293089  -0.169215   0.940991 )  
               a(2) = (   0.000000   0.338430   0.940991 )  
               a(3) = (  -0.293089  -0.169215   0.940991 )  

     reciprocal axes: (cart. coord. in units 2 pi/alat)
               b(1) = (  1.705965 -0.984939  0.354236 )  
               b(2) = (  0.000000  1.969879  0.354236 )  
               b(3) = ( -1.705965 -0.984939  0.354236 )  


     PseudoPot. # 1 for La read from file:
     ./La.UPF
     MD5 check sum: 8e5991bce12d7f16f732aa20d6589152
     Pseudo is Norm-conserving, Zval = 11.0
     Generated in analytical, separable form
     Using radial grid of 1253 points,  7 beta functions with: 
                l(1) =   0
                l(2) =   0
                l(3) =   1
                l(4) =   1
                l(5) =   1
                l(6) =   2
                l(7) =   3

     PseudoPot. # 2 for H  read from file:
     ./H.UPF
     MD5 check sum: df8e43189db5a2d7f03d0dd74d71ce72
     Pseudo is Norm-conserving, Zval =  1.0
     Generated in analytical, separable form
     Using radial grid of  929 points,  0 beta functions with: 

     PseudoPot. # 3 for Y  read from file:
     ./Y.UPF
     MD5 check sum: 28b92b02874aa0fef5f1b1d2b706803c
     Pseudo is Norm-conserving, Zval =  3.0
     Generated in analytical, separable form
     Using radial grid of 1223 points,  7 beta functions with: 
                l(1) =   0
                l(2) =   0
                l(3) =   0
                l(4) =   1
                l(5) =   1
                l(6) =   2
                l(7) =   2

     atomic species   valence    mass     pseudopotential
        La            11.00   138.90547     La( 1.00)
        H              1.00     1.00794     H ( 1.00)
        Y              3.00    88.90585     Y ( 1.00)

     12 Sym. Ops., with inversion, found



   Cartesian axes

     site n.     atom                  positions (alat units)
         1           La  tau(   1) = (   0.0000000  -0.0000000   1.4114872  )
         2           Y   tau(   2) = (   0.0000000   0.0000000   0.0000000  )
         3           H   tau(   3) = (  -0.1430193   0.0825722   2.1620011  )
         4           H   tau(   4) = (   0.0000000  -0.1651445   2.1620011  )
         5           H   tau(   5) = (   0.1430193   0.0825722   2.1620011  )
         6           H   tau(   6) = (  -0.1430193  -0.0825722   0.6609733  )
         7           H   tau(   7) = (   0.0000000   0.1651445   0.6609733  )
         8           H   tau(   8) = (   0.1430193  -0.0825722   0.6609733  )
         9           H   tau(   9) = (   0.1519197  -0.0877109   1.7193890  )
        10           H   tau(  10) = (   0.0000000   0.1754217   1.7193890  )
        11           H   tau(  11) = (  -0.1519197  -0.0877109   1.7193890  )
        12           H   tau(  12) = (   0.1519197   0.0877109   1.1035854  )
        13           H   tau(  13) = (   0.0000000  -0.1754217   1.1035854  )
        14           H   tau(  14) = (  -0.1519197   0.0877109   1.1035854  )
        15           H   tau(  15) = (   0.0000000  -0.0000000   2.2802090  )
        16           H   tau(  16) = (   0.0000000  -0.0000000   0.5427654  )
        17           H   tau(  17) = (   0.0000000  -0.0000000   1.9456472  )
        18           H   tau(  18) = (   0.0000000  -0.0000000   0.8773271  )
        19           H   tau(  19) = (   0.0000000  -0.0000000   2.4752083  )
        20           H   tau(  20) = (   0.0000000  -0.0000000   0.3477661  )
        21           H   tau(  21) = (   0.0000000  -0.0000000   1.0605137  )
        22           H   tau(  22) = (   0.0000000  -0.0000000   1.7624606  )

     number of k points=  1872 (tetrahedron method)

     Number of k-points >= 100: set verbosity='high' to print them.

     Dense  grid:    37235 G-vectors     FFT dimensions: (  64,  64,  64)

     Estimated max dynamical RAM per process >      10.88 MB

     Estimated total dynamical RAM >     217.61 MB

     The potential is recalculated from file :
     ./_ph0/LaYH20.q_3/LaYH20.save/charge-density

     Starting wfcs are   20 atomic +    1 random wfcs

     Band Structure Calculation
     Davidson diagonalization with overlap
     c_bands:  1 eigenvalues not converged
     c_bands:  1 eigenvalues not converged
     c_bands:  1 eigenvalues not converged
     c_bands:  1 eigenvalues not converged
     c_bands:  1 eigenvalues not converged
     c_bands:  1 eigenvalues not converged
     c_bands:  1 eigenvalues not converged
     c_bands:  1 eigenvalues not converged
     c_bands:  1 eigenvalues not converged
     c_bands:  1 eigenvalues not converged
     c_bands:  1 eigenvalues not converged
     c_bands:  1 eigenvalues not converged
     c_bands:  1 eigenvalues not converged
     c_bands:  1 eigenvalues not converged
     c_bands:  1 eigenvalues not converged
     c_bands:  1 eigenvalues not converged
     c_bands:  1 eigenvalues not converged
     c_bands:  1 eigenvalues not converged
     c_bands:  1 eigenvalues not converged
     c_bands:  1 eigenvalues not converged
     c_bands:  1 eigenvalues not converged
     c_bands:  1 eigenvalues not converged
     c_bands:  1 eigenvalues not converged
     c_bands:  1 eigenvalues not converged
     c_bands:  1 eigenvalues not converged
     c_bands:  1 eigenvalues not converged
     c_bands:  1 eigenvalues not converged

     ethr =  2.94E-11,  avg # of iterations = 51.2

     total cpu time spent up to now is     1169.1 secs

     End of band structure calculation

     Number of k-points >= 100: set verbosity='high' to print the bands.

     the Fermi energy is    16.6364 ev

     Writing config to output data dir ./_ph0/LaYH20.q_3/LaYH20.save/
 
     [dfpt_tetra]  Dos(E_F)[/Ry] :   0.2159144E+02

      Electron-phonon for LaYH20                                                

     bravais-lattice index     =            5
     lattice parameter (alat)  =      11.1245  a.u.
     unit-cell volume          =     385.4953 (a.u.)^3
     number of atoms/cell      =           22
     number of atomic types    =            3
     kinetic-energy cut-off    =      80.0000  Ry
     charge density cut-off    =     320.0000  Ry
     convergence threshold     =      1.0E-08
     beta                      =       0.7000
     number of iterations used =            4
     Exchange-correlation= PZ
                           (   1   1   0   0   0   0   0)


     celldm(1)=   11.12451  celldm(2)=    0.00000  celldm(3)=    0.00000
     celldm(4)=    0.82820  celldm(5)=    0.00000  celldm(6)=    0.00000

     crystal axes: (cart. coord. in units of alat)
               a(1) = (  0.2931 -0.1692  0.9410 )  
               a(2) = (  0.0000  0.3384  0.9410 )  
               a(3) = ( -0.2931 -0.1692  0.9410 )  

     reciprocal axes: (cart. coord. in units 2 pi/alat)
               b(1) = (  1.7060 -0.9849  0.3542 )  
               b(2) = (  0.0000  1.9699  0.3542 )  
               b(3) = ( -1.7060 -0.9849  0.3542 )  


     Atoms inside the unit cell: 

     Cartesian axes

     site n.  atom      mass           positions (alat units)
        1     La 138.9055   tau(    1) = (    0.00000   -0.00000    1.41149  )
        2     Y   88.9059   tau(    2) = (    0.00000    0.00000    0.00000  )
        3     H    1.0079   tau(    3) = (   -0.14302    0.08257    2.16200  )
        4     H    1.0079   tau(    4) = (    0.00000   -0.16514    2.16200  )
        5     H    1.0079   tau(    5) = (    0.14302    0.08257    2.16200  )
        6     H    1.0079   tau(    6) = (   -0.14302   -0.08257    0.66097  )
        7     H    1.0079   tau(    7) = (    0.00000    0.16514    0.66097  )
        8     H    1.0079   tau(    8) = (    0.14302   -0.08257    0.66097  )
        9     H    1.0079   tau(    9) = (    0.15192   -0.08771    1.71939  )
       10     H    1.0079   tau(   10) = (    0.00000    0.17542    1.71939  )
       11     H    1.0079   tau(   11) = (   -0.15192   -0.08771    1.71939  )
       12     H    1.0079   tau(   12) = (    0.15192    0.08771    1.10359  )
       13     H    1.0079   tau(   13) = (    0.00000   -0.17542    1.10359  )
       14     H    1.0079   tau(   14) = (   -0.15192    0.08771    1.10359  )
       15     H    1.0079   tau(   15) = (    0.00000   -0.00000    2.28021  )
       16     H    1.0079   tau(   16) = (    0.00000   -0.00000    0.54277  )
       17     H    1.0079   tau(   17) = (    0.00000   -0.00000    1.94565  )
       18     H    1.0079   tau(   18) = (    0.00000   -0.00000    0.87733  )
       19     H    1.0079   tau(   19) = (    0.00000   -0.00000    2.47521  )
       20     H    1.0079   tau(   20) = (    0.00000   -0.00000    0.34777  )
       21     H    1.0079   tau(   21) = (    0.00000   -0.00000    1.06051  )
       22     H    1.0079   tau(   22) = (    0.00000   -0.00000    1.76246  )

     Computing dynamical matrix for 
                    q = (   0.8529824   0.4924696  -0.0442795 )
 
      2 Sym.Ops. (no q -> -q+G )


     G cutoff = 1003.1184  (   1862 G-vectors)     FFT grid: ( 64, 64, 64)
     number of k points=  1872

     PseudoPot. # 1 for La read from file:
     ./La.UPF
     MD5 check sum: 8e5991bce12d7f16f732aa20d6589152
     Pseudo is Norm-conserving, Zval = 11.0
     Generated in analytical, separable form
     Using radial grid of 1253 points,  7 beta functions with: 
                l(1) =   0
                l(2) =   0
                l(3) =   1
                l(4) =   1
                l(5) =   1
                l(6) =   2
                l(7) =   3

     PseudoPot. # 2 for H  read from file:
     ./H.UPF
     MD5 check sum: df8e43189db5a2d7f03d0dd74d71ce72
     Pseudo is Norm-conserving, Zval =  1.0
     Generated in analytical, separable form
     Using radial grid of  929 points,  0 beta functions with: 

     PseudoPot. # 3 for Y  read from file:
     ./Y.UPF
     MD5 check sum: 28b92b02874aa0fef5f1b1d2b706803c
     Pseudo is Norm-conserving, Zval =  3.0
     Generated in analytical, separable form
     Using radial grid of 1223 points,  7 beta functions with: 
                l(1) =   0
                l(2) =   0
                l(3) =   0
                l(4) =   1
                l(5) =   1
                l(6) =   2
                l(7) =   2

     Mode symmetry, C_s (m)     point group:


     Atomic displacements:
     There are   66 irreducible representations

     Representation     1      1 modes -  To be done

     Representation     2      1 modes -  To be done

     Representation     3      1 modes -  To be done

     Representation     4      1 modes -  To be done

     Representation     5      1 modes -  To be done

     Representation     6      1 modes -  To be done

     Representation     7      1 modes -  To be done

     Representation     8      1 modes -  To be done

     Representation     9      1 modes -  To be done

     Representation    10      1 modes -  To be done

     Representation    11      1 modes -  To be done

     Representation    12      1 modes -  To be done

     Representation    13      1 modes -  To be done

     Representation    14      1 modes -  To be done

     Representation    15      1 modes -  To be done

     Representation    16      1 modes -  To be done

     Representation    17      1 modes -  To be done

     Representation    18      1 modes -  To be done

     Representation    19      1 modes -  To be done

     Representation    20      1 modes -  To be done

     Representation    21      1 modes -  To be done

     Representation    22      1 modes -  To be done

     Representation    23      1 modes -  To be done

     Representation    24      1 modes -  To be done

     Representation    25      1 modes -  To be done

     Representation    26      1 modes -  To be done

     Representation    27      1 modes -  To be done

     Representation    28      1 modes -  To be done

     Representation    29      1 modes -  To be done

     Representation    30      1 modes -  To be done

     Representation    31      1 modes -  To be done

     Representation    32      1 modes -  To be done

     Representation    33      1 modes -  To be done

     Representation    34      1 modes -  To be done

     Representation    35      1 modes -  To be done

     Representation    36      1 modes -  To be done

     Representation    37      1 modes -  To be done

     Representation    38      1 modes -  To be done

     Representation    39      1 modes -  To be done

     Representation    40      1 modes -  To be done

     Representation    41      1 modes -  To be done

     Representation    42      1 modes -  To be done

     Representation    43      1 modes -  To be done

     Representation    44      1 modes -  To be done

     Representation    45      1 modes -  To be done

     Representation    46      1 modes -  To be done

     Representation    47      1 modes -  To be done

     Representation    48      1 modes -  To be done

     Representation    49      1 modes -  To be done

     Representation    50      1 modes -  To be done

     Representation    51      1 modes -  To be done

     Representation    52      1 modes -  To be done

     Representation    53      1 modes -  To be done

     Representation    54      1 modes -  To be done

     Representation    55      1 modes -  To be done

     Representation    56      1 modes -  To be done

     Representation    57      1 modes -  To be done

     Representation    58      1 modes -  To be done

     Representation    59      1 modes -  To be done

     Representation    60      1 modes -  To be done

     Representation    61      1 modes -  To be done

     Representation    62      1 modes -  To be done

     Representation    63      1 modes -  To be done

     Representation    64      1 modes -  To be done

     Representation    65      1 modes -  To be done

     Representation    66      1 modes -  To be done


     PHONON       :  31m43.58s CPU  32m43.85s WALL

     Reading dVscf from file dv
     Reading dynamics matrix from file LaYH20.dyn3

     Diagonalizing the dynamical matrix

     q = (    0.852982437   0.492469640  -0.044279538 ) 

 **************************************************************************
     freq (    1) =     -60.172347 [THz] =   -2007.133451 [cm-1]
     freq (    2) =     -59.910753 [THz] =   -1998.407625 [cm-1]
     freq (    3) =     -54.666173 [THz] =   -1823.467245 [cm-1]
     freq (    4) =     -51.615834 [THz] =   -1721.718901 [cm-1]
     freq (    5) =     -51.034839 [THz] =   -1702.338983 [cm-1]
     freq (    6) =     -49.780334 [THz] =   -1660.493223 [cm-1]
     freq (    7) =     -39.195461 [THz] =   -1307.419837 [cm-1]
     freq (    8) =     -36.126120 [THz] =   -1205.037650 [cm-1]
     freq (    9) =     -33.482014 [THz] =   -1116.839778 [cm-1]
     freq (   10) =     -31.458691 [THz] =   -1049.348984 [cm-1]
     freq (   11) =     -27.963236 [THz] =    -932.753162 [cm-1]
     freq (   12) =     -22.077238 [THz] =    -736.417384 [cm-1]
     freq (   13) =     -10.112749 [THz] =    -337.324985 [cm-1]
     freq (   14) =      -7.895005 [THz] =    -263.349010 [cm-1]
     freq (   15) =      -2.717536 [THz] =     -90.647260 [cm-1]
     freq (   16) =      -1.396033 [THz] =     -46.566648 [cm-1]
     freq (   17) =       3.838253 [THz] =     128.030347 [cm-1]
     freq (   18) =       4.765364 [THz] =     158.955443 [cm-1]
     freq (   19) =       5.887553 [THz] =     196.387638 [cm-1]
     freq (   20) =       7.877245 [THz] =     262.756595 [cm-1]
     freq (   21) =       9.169462 [THz] =     305.860343 [cm-1]
     freq (   22) =      14.747069 [THz] =     491.909279 [cm-1]
     freq (   23) =      16.217656 [THz] =     540.962791 [cm-1]
     freq (   24) =      17.210893 [THz] =     574.093590 [cm-1]
     freq (   25) =      20.694101 [THz] =     690.280908 [cm-1]
     freq (   26) =      22.131883 [THz] =     738.240140 [cm-1]
     freq (   27) =      22.622424 [THz] =     754.602826 [cm-1]
     freq (   28) =      24.267400 [THz] =     809.473330 [cm-1]
     freq (   29) =      25.323573 [THz] =     844.703479 [cm-1]
     freq (   30) =      25.774976 [THz] =     859.760669 [cm-1]
     freq (   31) =      26.406308 [THz] =     880.819639 [cm-1]
     freq (   32) =      28.255179 [THz] =     942.491315 [cm-1]
     freq (   33) =      29.464609 [THz] =     982.833568 [cm-1]
     freq (   34) =      31.582560 [THz] =    1053.480814 [cm-1]
     freq (   35) =      32.756731 [THz] =    1092.646943 [cm-1]
     freq (   36) =      32.941711 [THz] =    1098.817203 [cm-1]
     freq (   37) =      33.102341 [THz] =    1104.175257 [cm-1]
     freq (   38) =      34.895766 [THz] =    1163.997470 [cm-1]
     freq (   39) =      35.336946 [THz] =    1178.713658 [cm-1]
     freq (   40) =      36.252226 [THz] =    1209.244100 [cm-1]
     freq (   41) =      37.887281 [THz] =    1263.783649 [cm-1]
     freq (   42) =      38.530559 [THz] =    1285.241098 [cm-1]
     freq (   43) =      39.479043 [THz] =    1316.879140 [cm-1]
     freq (   44) =      39.780664 [THz] =    1326.940129 [cm-1]
     freq (   45) =      39.802270 [THz] =    1327.660802 [cm-1]
     freq (   46) =      40.529425 [THz] =    1351.916091 [cm-1]
     freq (   47) =      41.847866 [THz] =    1395.894563 [cm-1]
     freq (   48) =      42.361503 [THz] =    1413.027631 [cm-1]
     freq (   49) =      43.441243 [THz] =    1449.043887 [cm-1]
     freq (   50) =      45.006642 [THz] =    1501.259992 [cm-1]
     freq (   51) =      46.328508 [THz] =    1545.352696 [cm-1]
     freq (   52) =      48.227920 [THz] =    1608.710246 [cm-1]
     freq (   53) =      48.471160 [THz] =    1616.823853 [cm-1]
     freq (   54) =      50.094130 [THz] =    1670.960300 [cm-1]
     freq (   55) =      51.321878 [THz] =    1711.913565 [cm-1]
     freq (   56) =      52.674495 [THz] =    1757.032041 [cm-1]
     freq (   57) =      53.091001 [THz] =    1770.925181 [cm-1]
     freq (   58) =      55.019909 [THz] =    1835.266629 [cm-1]
     freq (   59) =      57.435300 [THz] =    1915.835391 [cm-1]
     freq (   60) =      59.133360 [THz] =    1972.476584 [cm-1]
     freq (   61) =      62.510172 [THz] =    2085.114903 [cm-1]
     freq (   62) =      65.391955 [THz] =    2181.240837 [cm-1]
     freq (   63) =      67.529880 [THz] =    2252.554326 [cm-1]
     freq (   64) =      79.711409 [THz] =    2658.886412 [cm-1]
     freq (   65) =      92.551825 [THz] =    3087.196569 [cm-1]
     freq (   66) =     111.871092 [THz] =    3731.617953 [cm-1]
 **************************************************************************

     [elph_tetra]   Lowest band which contains FS :         15
     [elph_tetra]  Highest band which contains FS :         20
     [elph_tetra]    # of bands which contains FS :          6
 
     Tetrahedron method
     DOS = 10.795721 states/spin/Ry/Unit Cell at Ef= 16.636401 eV
     double delta at Ef =227.460691
     lambda(    1)=  0.0000   gamma=    0.00 GHz
     lambda(    2)=  0.0000   gamma=    0.00 GHz
     lambda(    3)=  0.0000   gamma=    0.00 GHz
     lambda(    4)=  0.0000   gamma=    0.00 GHz
     lambda(    5)=  0.0000   gamma=    0.00 GHz
     lambda(    6)=  0.0000   gamma=    0.00 GHz
     lambda(    7)=  0.0000   gamma=    0.00 GHz
     lambda(    8)=  0.0000   gamma=    0.00 GHz
     lambda(    9)=  0.0000   gamma=    0.00 GHz
     lambda(   10)=  0.0000   gamma=    0.00 GHz
     lambda(   11)=  0.0000   gamma=    0.00 GHz
     lambda(   12)=  0.0000   gamma=    0.00 GHz
     lambda(   13)=  0.0000   gamma=    0.00 GHz
     lambda(   14)=  0.0000   gamma=    0.00 GHz
     lambda(   15)=  0.0000   gamma=    0.00 GHz
     lambda(   16)=  0.0000   gamma=    0.00 GHz
     lambda(   17)=  0.0983   gamma=   14.92 GHz
     lambda(   18)=  0.5028   gamma=  117.72 GHz
     lambda(   19)=  0.7600   gamma=  271.58 GHz
     lambda(   20)=  0.7593   gamma=  485.71 GHz
     lambda(   21)=  0.4743   gamma=  411.16 GHz
     lambda(   22)=  0.1335   gamma=  299.37 GHz
     lambda(   23)=  0.2899   gamma=  786.09 GHz
     lambda(   24)=  0.1343   gamma=  410.14 GHz
     lambda(   25)=  0.1316   gamma=  580.94 GHz
     lambda(   26)=  0.0938   gamma=  473.46 GHz
     lambda(   27)=  0.0121   gamma=   63.96 GHz
     lambda(   28)=  0.0715   gamma=  434.15 GHz
     lambda(   29)=  0.0413   gamma=  273.34 GHz
     lambda(   30)=  0.0110   gamma=   75.04 GHz
     lambda(   31)=  0.0393   gamma=  282.80 GHz
     lambda(   32)=  0.0353   gamma=  290.16 GHz
     lambda(   33)=  0.0646   gamma=  578.41 GHz
     lambda(   34)=  0.0348   gamma=  357.63 GHz
     lambda(   35)=  0.0131   gamma=  145.46 GHz
     lambda(   36)=  0.0183   gamma=  205.08 GHz
     lambda(   37)=  0.0264   gamma=  298.45 GHz
     lambda(   38)=  0.0138   gamma=  172.74 GHz
     lambda(   39)=  0.0219   gamma=  281.70 GHz
     lambda(   40)=  0.0208   gamma=  281.58 GHz
     lambda(   41)=  0.0380   gamma=  561.82 GHz
     lambda(   42)=  0.0330   gamma=  505.16 GHz
     lambda(   43)=  0.0432   gamma=  693.48 GHz
     lambda(   44)=  0.0161   gamma=  262.93 GHz
     lambda(   45)=  0.0323   gamma=  528.23 GHz
     lambda(   46)=  0.0131   gamma=  222.15 GHz
     lambda(   47)=  0.0207   gamma=  373.50 GHz
     lambda(   48)=  0.0141   gamma=  261.55 GHz
     lambda(   49)=  0.0241   gamma=  468.06 GHz
     lambda(   50)=  0.0175   gamma=  365.30 GHz
     lambda(   51)=  0.0183   gamma=  403.88 GHz
     lambda(   52)=  0.0081   gamma=  194.93 GHz
     lambda(   53)=  0.0201   gamma=  487.91 GHz
     lambda(   54)=  0.0194   gamma=  502.21 GHz
     lambda(   55)=  0.0115   gamma=  311.61 GHz
     lambda(   56)=  0.0142   gamma=  407.16 GHz
     lambda(   57)=  0.0068   gamma=  198.01 GHz
     lambda(   58)=  0.0165   gamma=  516.00 GHz
     lambda(   59)=  0.0112   gamma=  381.11 GHz
     lambda(   60)=  0.0126   gamma=  454.96 GHz
     lambda(   61)=  0.0074   gamma=  297.28 GHz
     lambda(   62)=  0.0082   gamma=  359.72 GHz
     lambda(   63)=  0.0056   gamma=  264.49 GHz
     lambda(   64)=  0.0050   gamma=  324.44 GHz
     lambda(   65)=  0.0026   gamma=  227.12 GHz
     lambda(   66)=  0.0022   gamma=  279.52 GHz
 
     Number of q in the star =    6
     List of q in the star:
          1   0.852982437   0.492469640  -0.044279538
          2   0.000000000  -0.984939279  -0.044279538
          3  -0.852982437   0.492469640  -0.044279538
          4  -0.852982437  -0.492469640   0.044279538
          5   0.852982437  -0.492469640   0.044279538
          6  -0.000000000   0.984939279   0.044279538

     Calculation of q =    0.4264912   0.2462348   0.0442795
     [opt_tetra]  Optimized tetrahedron method is used.
 
     Parallelization info
     --------------------
     sticks:   dense  smooth     PW     G-vecs:    dense   smooth      PW
     Min          88      88     29                 1861     1861     351
     Max          89      89     30                 1863     1863     353
     Sum        1767    1767    581                37235    37235    7025
 
     Using Slab Decomposition
 

     Title: 
      Electron-phonon for LaYH20                                                


     bravais-lattice index     =            5
     lattice parameter (alat)  =      11.1245  a.u.
     unit-cell volume          =     385.4953 (a.u.)^3
     number of atoms/cell      =           22
     number of atomic types    =            3
     number of electrons       =        34.00
     number of Kohn-Sham states=           21
     kinetic-energy cutoff     =      80.0000  Ry
     charge density cutoff     =     320.0000  Ry
     Exchange-correlation= PZ
                           (   1   1   0   0   0   0   0)

     celldm(1)=  11.124512  celldm(2)=   0.000000  celldm(3)=   0.000000
     celldm(4)=   0.828197  celldm(5)=   0.000000  celldm(6)=   0.000000

     crystal axes: (cart. coord. in units of alat)
               a(1) = (   0.293089  -0.169215   0.940991 )  
               a(2) = (   0.000000   0.338430   0.940991 )  
               a(3) = (  -0.293089  -0.169215   0.940991 )  

     reciprocal axes: (cart. coord. in units 2 pi/alat)
               b(1) = (  1.705965 -0.984939  0.354236 )  
               b(2) = (  0.000000  1.969879  0.354236 )  
               b(3) = ( -1.705965 -0.984939  0.354236 )  


     PseudoPot. # 1 for La read from file:
     ./La.UPF
     MD5 check sum: 8e5991bce12d7f16f732aa20d6589152
     Pseudo is Norm-conserving, Zval = 11.0
     Generated in analytical, separable form
     Using radial grid of 1253 points,  7 beta functions with: 
                l(1) =   0
                l(2) =   0
                l(3) =   1
                l(4) =   1
                l(5) =   1
                l(6) =   2
                l(7) =   3

     PseudoPot. # 2 for H  read from file:
     ./H.UPF
     MD5 check sum: df8e43189db5a2d7f03d0dd74d71ce72
     Pseudo is Norm-conserving, Zval =  1.0
     Generated in analytical, separable form
     Using radial grid of  929 points,  0 beta functions with: 

     PseudoPot. # 3 for Y  read from file:
     ./Y.UPF
     MD5 check sum: 28b92b02874aa0fef5f1b1d2b706803c
     Pseudo is Norm-conserving, Zval =  3.0
     Generated in analytical, separable form
     Using radial grid of 1223 points,  7 beta functions with: 
                l(1) =   0
                l(2) =   0
                l(3) =   0
                l(4) =   1
                l(5) =   1
                l(6) =   2
                l(7) =   2

     atomic species   valence    mass     pseudopotential
        La            11.00   138.90547     La( 1.00)
        H              1.00     1.00794     H ( 1.00)
        Y              3.00    88.90585     Y ( 1.00)

     12 Sym. Ops., with inversion, found



   Cartesian axes

     site n.     atom                  positions (alat units)
         1           La  tau(   1) = (   0.0000000  -0.0000000   1.4114872  )
         2           Y   tau(   2) = (   0.0000000   0.0000000   0.0000000  )
         3           H   tau(   3) = (  -0.1430193   0.0825722   2.1620011  )
         4           H   tau(   4) = (   0.0000000  -0.1651445   2.1620011  )
         5           H   tau(   5) = (   0.1430193   0.0825722   2.1620011  )
         6           H   tau(   6) = (  -0.1430193  -0.0825722   0.6609733  )
         7           H   tau(   7) = (   0.0000000   0.1651445   0.6609733  )
         8           H   tau(   8) = (   0.1430193  -0.0825722   0.6609733  )
         9           H   tau(   9) = (   0.1519197  -0.0877109   1.7193890  )
        10           H   tau(  10) = (   0.0000000   0.1754217   1.7193890  )
        11           H   tau(  11) = (  -0.1519197  -0.0877109   1.7193890  )
        12           H   tau(  12) = (   0.1519197   0.0877109   1.1035854  )
        13           H   tau(  13) = (   0.0000000  -0.1754217   1.1035854  )
        14           H   tau(  14) = (  -0.1519197   0.0877109   1.1035854  )
        15           H   tau(  15) = (   0.0000000  -0.0000000   2.2802090  )
        16           H   tau(  16) = (   0.0000000  -0.0000000   0.5427654  )
        17           H   tau(  17) = (   0.0000000  -0.0000000   1.9456472  )
        18           H   tau(  18) = (   0.0000000  -0.0000000   0.8773271  )
        19           H   tau(  19) = (   0.0000000  -0.0000000   2.4752083  )
        20           H   tau(  20) = (   0.0000000  -0.0000000   0.3477661  )
        21           H   tau(  21) = (   0.0000000  -0.0000000   1.0605137  )
        22           H   tau(  22) = (   0.0000000  -0.0000000   1.7624606  )

     number of k points=  1872 (tetrahedron method)

     Number of k-points >= 100: set verbosity='high' to print them.

     Dense  grid:    37235 G-vectors     FFT dimensions: (  64,  64,  64)

     Estimated max dynamical RAM per process >      10.75 MB

     Estimated total dynamical RAM >     215.10 MB

     The potential is recalculated from file :
     ./_ph0/LaYH20.q_4/LaYH20.save/charge-density

     Starting wfcs are   20 atomic +    1 random wfcs

     Band Structure Calculation
     Davidson diagonalization with overlap
     c_bands:  1 eigenvalues not converged
     c_bands:  1 eigenvalues not converged
     c_bands:  1 eigenvalues not converged
     c_bands:  1 eigenvalues not converged
     c_bands:  1 eigenvalues not converged
     c_bands:  1 eigenvalues not converged
     c_bands:  1 eigenvalues not converged
     c_bands:  1 eigenvalues not converged
     c_bands:  1 eigenvalues not converged
     c_bands:  1 eigenvalues not converged
     c_bands:  1 eigenvalues not converged
     c_bands:  1 eigenvalues not converged
     c_bands:  1 eigenvalues not converged
     c_bands:  1 eigenvalues not converged
     c_bands:  1 eigenvalues not converged
     c_bands:  1 eigenvalues not converged
     c_bands:  1 eigenvalues not converged
     c_bands:  1 eigenvalues not converged
     c_bands:  1 eigenvalues not converged
     c_bands:  1 eigenvalues not converged
     c_bands:  1 eigenvalues not converged
     c_bands:  1 eigenvalues not converged
     c_bands:  1 eigenvalues not converged
     c_bands:  1 eigenvalues not converged
     c_bands:  1 eigenvalues not converged

     ethr =  2.94E-11,  avg # of iterations = 51.0

     total cpu time spent up to now is     1673.8 secs

     End of band structure calculation

     Number of k-points >= 100: set verbosity='high' to print the bands.

     the Fermi energy is    16.6364 ev

     Writing config to output data dir ./_ph0/LaYH20.q_4/LaYH20.save/
 
     [dfpt_tetra]  Dos(E_F)[/Ry] :   0.2159144E+02

      Electron-phonon for LaYH20                                                

     bravais-lattice index     =            5
     lattice parameter (alat)  =      11.1245  a.u.
     unit-cell volume          =     385.4953 (a.u.)^3
     number of atoms/cell      =           22
     number of atomic types    =            3
     kinetic-energy cut-off    =      80.0000  Ry
     charge density cut-off    =     320.0000  Ry
     convergence threshold     =      1.0E-08
     beta                      =       0.7000
     number of iterations used =            4
     Exchange-correlation= PZ
                           (   1   1   0   0   0   0   0)


     celldm(1)=   11.12451  celldm(2)=    0.00000  celldm(3)=    0.00000
     celldm(4)=    0.82820  celldm(5)=    0.00000  celldm(6)=    0.00000

     crystal axes: (cart. coord. in units of alat)
               a(1) = (  0.2931 -0.1692  0.9410 )  
               a(2) = (  0.0000  0.3384  0.9410 )  
[...]
     kinetic-energy cut-off    =      80.0000  Ry
     charge density cut-off    =     320.0000  Ry
     convergence threshold     =      1.0E-08
     beta                      =       0.7000
     number of iterations used =            4
     Exchange-correlation= PZ
                           (   1   1   0   0   0   0   0)


     celldm(1)=   11.12451  celldm(2)=    0.00000  celldm(3)=    0.00000
     celldm(4)=    0.82820  celldm(5)=    0.00000  celldm(6)=    0.00000

     crystal axes: (cart. coord. in units of alat)
               a(1) = (  0.2931 -0.1692  0.9410 )  
               a(2) = (  0.0000  0.3384  0.9410 )  
               a(3) = ( -0.2931 -0.1692  0.9410 )  

     reciprocal axes: (cart. coord. in units 2 pi/alat)
               b(1) = (  1.7060 -0.9849  0.3542 )  
               b(2) = (  0.0000  1.9699  0.3542 )  
               b(3) = ( -1.7060 -0.9849  0.3542 )  


     Atoms inside the unit cell: 

     Cartesian axes

     site n.  atom      mass           positions (alat units)
        1     La 138.9055   tau(    1) = (    0.00000   -0.00000    1.41149  )
        2     Y   88.9059   tau(    2) = (    0.00000    0.00000    0.00000  )
        3     H    1.0079   tau(    3) = (   -0.14302    0.08257    2.16200  )
        4     H    1.0079   tau(    4) = (    0.00000   -0.16514    2.16200  )
        5     H    1.0079   tau(    5) = (    0.14302    0.08257    2.16200  )
        6     H    1.0079   tau(    6) = (   -0.14302   -0.08257    0.66097  )
        7     H    1.0079   tau(    7) = (    0.00000    0.16514    0.66097  )
        8     H    1.0079   tau(    8) = (    0.14302   -0.08257    0.66097  )
        9     H    1.0079   tau(    9) = (    0.15192   -0.08771    1.71939  )
       10     H    1.0079   tau(   10) = (    0.00000    0.17542    1.71939  )
       11     H    1.0079   tau(   11) = (   -0.15192   -0.08771    1.71939  )
       12     H    1.0079   tau(   12) = (    0.15192    0.08771    1.10359  )
       13     H    1.0079   tau(   13) = (    0.00000   -0.17542    1.10359  )
       14     H    1.0079   tau(   14) = (   -0.15192    0.08771    1.10359  )
       15     H    1.0079   tau(   15) = (    0.00000   -0.00000    2.28021  )
       16     H    1.0079   tau(   16) = (    0.00000   -0.00000    0.54277  )
       17     H    1.0079   tau(   17) = (    0.00000   -0.00000    1.94565  )
       18     H    1.0079   tau(   18) = (    0.00000   -0.00000    0.87733  )
       19     H    1.0079   tau(   19) = (    0.00000   -0.00000    2.47521  )
       20     H    1.0079   tau(   20) = (    0.00000   -0.00000    0.34777  )
       21     H    1.0079   tau(   21) = (    0.00000   -0.00000    1.06051  )
       22     H    1.0079   tau(   22) = (    0.00000   -0.00000    1.76246  )

     Computing dynamical matrix for 
                    q = (   1.2794737   0.7387045   0.1328386 )
 
      2 Sym.Ops. (no q -> -q+G )


     G cutoff = 1003.1184  (   1862 G-vectors)     FFT grid: ( 64, 64, 64)
     number of k points=  1872

     PseudoPot. # 1 for La read from file:
     ./La.UPF
     MD5 check sum: 8e5991bce12d7f16f732aa20d6589152
     Pseudo is Norm-conserving, Zval = 11.0
     Generated in analytical, separable form
     Using radial grid of 1253 points,  7 beta functions with: 
                l(1) =   0
                l(2) =   0
                l(3) =   1
                l(4) =   1
                l(5) =   1
                l(6) =   2
                l(7) =   3

     PseudoPot. # 2 for H  read from file:
     ./H.UPF
     MD5 check sum: df8e43189db5a2d7f03d0dd74d71ce72
     Pseudo is Norm-conserving, Zval =  1.0
     Generated in analytical, separable form
     Using radial grid of  929 points,  0 beta functions with: 

     PseudoPot. # 3 for Y  read from file:
     ./Y.UPF
     MD5 check sum: 28b92b02874aa0fef5f1b1d2b706803c
     Pseudo is Norm-conserving, Zval =  3.0
     Generated in analytical, separable form
     Using radial grid of 1223 points,  7 beta functions with: 
                l(1) =   0
                l(2) =   0
                l(3) =   0
                l(4) =   1
                l(5) =   1
                l(6) =   2
                l(7) =   2

     Mode symmetry, C_s (m)     point group:


     Atomic displacements:
     There are   66 irreducible representations

     Representation     1      1 modes -  To be done

     Representation     2      1 modes -  To be done

     Representation     3      1 modes -  To be done

     Representation     4      1 modes -  To be done

     Representation     5      1 modes -  To be done

     Representation     6      1 modes -  To be done

     Representation     7      1 modes -  To be done

     Representation     8      1 modes -  To be done

     Representation     9      1 modes -  To be done

     Representation    10      1 modes -  To be done

     Representation    11      1 modes -  To be done

     Representation    12      1 modes -  To be done

     Representation    13      1 modes -  To be done

     Representation    14      1 modes -  To be done

     Representation    15      1 modes -  To be done

     Representation    16      1 modes -  To be done

     Representation    17      1 modes -  To be done

     Representation    18      1 modes -  To be done

     Representation    19      1 modes -  To be done

     Representation    20      1 modes -  To be done

     Representation    21      1 modes -  To be done

     Representation    22      1 modes -  To be done

     Representation    23      1 modes -  To be done

     Representation    24      1 modes -  To be done

     Representation    25      1 modes -  To be done

     Representation    26      1 modes -  To be done

     Representation    27      1 modes -  To be done

     Representation    28      1 modes -  To be done

     Representation    29      1 modes -  To be done

     Representation    30      1 modes -  To be done

     Representation    31      1 modes -  To be done

     Representation    32      1 modes -  To be done

     Representation    33      1 modes -  To be done

     Representation    34      1 modes -  To be done

     Representation    35      1 modes -  To be done

     Representation    36      1 modes -  To be done

     Representation    37      1 modes -  To be done

     Representation    38      1 modes -  To be done

     Representation    39      1 modes -  To be done

     Representation    40      1 modes -  To be done

     Representation    41      1 modes -  To be done

     Representation    42      1 modes -  To be done

     Representation    43      1 modes -  To be done

     Representation    44      1 modes -  To be done

     Representation    45      1 modes -  To be done

     Representation    46      1 modes -  To be done

     Representation    47      1 modes -  To be done

     Representation    48      1 modes -  To be done

     Representation    49      1 modes -  To be done

     Representation    50      1 modes -  To be done

     Representation    51      1 modes -  To be done

     Representation    52      1 modes -  To be done

     Representation    53      1 modes -  To be done

     Representation    54      1 modes -  To be done

     Representation    55      1 modes -  To be done

     Representation    56      1 modes -  To be done

     Representation    57      1 modes -  To be done

     Representation    58      1 modes -  To be done

     Representation    59      1 modes -  To be done

     Representation    60      1 modes -  To be done

     Representation    61      1 modes -  To be done

     Representation    62      1 modes -  To be done

     Representation    63      1 modes -  To be done

     Representation    64      1 modes -  To be done

     Representation    65      1 modes -  To be done

     Representation    66      1 modes -  To be done


     PHONON       :      2h51m CPU      2h56m WALL

     Reading dVscf from file dv
     Reading dynamics matrix from file LaYH20.dyn10

     Diagonalizing the dynamical matrix

     q = (    1.279473656   0.738704460   0.132838614 ) 

 **************************************************************************
     freq (    1) =     -63.736468 [THz] =   -2126.019722 [cm-1]
     freq (    2) =     -56.435910 [THz] =   -1882.499309 [cm-1]
     freq (    3) =     -52.706604 [THz] =   -1758.103076 [cm-1]
     freq (    4) =     -50.125798 [THz] =   -1672.016641 [cm-1]
     freq (    5) =     -49.927332 [THz] =   -1665.396529 [cm-1]
     freq (    6) =     -44.152689 [THz] =   -1472.775174 [cm-1]
     freq (    7) =     -33.910943 [THz] =   -1131.147311 [cm-1]
     freq (    8) =     -31.919641 [THz] =   -1064.724616 [cm-1]
     freq (    9) =     -30.797512 [THz] =   -1027.294436 [cm-1]
     freq (   10) =     -23.956733 [THz] =    -799.110607 [cm-1]
     freq (   11) =     -23.869587 [THz] =    -796.203716 [cm-1]
     freq (   12) =     -21.524546 [THz] =    -717.981558 [cm-1]
     freq (   13) =     -14.783153 [THz] =    -493.112912 [cm-1]
     freq (   14) =     -11.917613 [THz] =    -397.528767 [cm-1]
     freq (   15) =      -7.147685 [THz] =    -238.421124 [cm-1]
     freq (   16) =      -3.821570 [THz] =    -127.473860 [cm-1]
     freq (   17) =       2.815497 [THz] =      93.914867 [cm-1]
     freq (   18) =       3.006926 [THz] =     100.300258 [cm-1]
     freq (   19) =       4.273637 [THz] =     142.553191 [cm-1]
     freq (   20) =       5.573409 [THz] =     185.908914 [cm-1]
     freq (   21) =       7.989464 [THz] =     266.499850 [cm-1]
     freq (   22) =       9.248135 [THz] =     308.484589 [cm-1]
     freq (   23) =       9.586852 [THz] =     319.782950 [cm-1]
     freq (   24) =      13.507472 [THz] =     450.560751 [cm-1]
     freq (   25) =      18.561028 [THz] =     619.129259 [cm-1]
     freq (   26) =      22.449739 [THz] =     748.842677 [cm-1]
     freq (   27) =      23.856455 [THz] =     795.765672 [cm-1]
     freq (   28) =      24.352732 [THz] =     812.319703 [cm-1]
     freq (   29) =      25.120966 [THz] =     837.945224 [cm-1]
     freq (   30) =      26.046815 [THz] =     868.828227 [cm-1]
     freq (   31) =      26.162496 [THz] =     872.686940 [cm-1]
     freq (   32) =      27.758563 [THz] =     925.925998 [cm-1]
     freq (   33) =      28.683496 [THz] =     956.778454 [cm-1]
     freq (   34) =      29.226256 [THz] =     974.882966 [cm-1]
     freq (   35) =      30.667385 [THz] =    1022.953864 [cm-1]
     freq (   36) =      31.388606 [THz] =    1047.011183 [cm-1]
     freq (   37) =      31.534946 [THz] =    1051.892570 [cm-1]
     freq (   38) =      32.653878 [THz] =    1089.216142 [cm-1]
     freq (   39) =      33.325290 [THz] =    1111.612004 [cm-1]
     freq (   40) =      33.630207 [THz] =    1121.782957 [cm-1]
     freq (   41) =      34.663638 [THz] =    1156.254518 [cm-1]
     freq (   42) =      34.773964 [THz] =    1159.934594 [cm-1]
     freq (   43) =      35.705214 [THz] =    1190.997732 [cm-1]
     freq (   44) =      37.661315 [THz] =    1256.246250 [cm-1]
     freq (   45) =      38.602857 [THz] =    1287.652716 [cm-1]
     freq (   46) =      40.065164 [THz] =    1336.430032 [cm-1]
     freq (   47) =      40.650863 [THz] =    1355.966842 [cm-1]
     freq (   48) =      41.036864 [THz] =    1368.842425 [cm-1]
     freq (   49) =      41.755683 [THz] =    1392.819662 [cm-1]
     freq (   50) =      45.843719 [THz] =    1529.181853 [cm-1]
     freq (   51) =      45.974867 [THz] =    1533.556480 [cm-1]
     freq (   52) =      46.881657 [THz] =    1563.803762 [cm-1]
     freq (   53) =      47.093273 [THz] =    1570.862512 [cm-1]
     freq (   54) =      48.313083 [THz] =    1611.550976 [cm-1]
     freq (   55) =      50.187900 [THz] =    1674.088141 [cm-1]
     freq (   56) =      50.477706 [THz] =    1683.755049 [cm-1]
     freq (   57) =      51.493111 [THz] =    1717.625312 [cm-1]
     freq (   58) =      52.837173 [THz] =    1762.458376 [cm-1]
     freq (   59) =      54.633074 [THz] =    1822.363203 [cm-1]
     freq (   60) =      55.651777 [THz] =    1856.343460 [cm-1]
     freq (   61) =      57.297562 [THz] =    1911.240928 [cm-1]
     freq (   62) =      57.373272 [THz] =    1913.766367 [cm-1]
     freq (   63) =      60.232510 [THz] =    2009.140275 [cm-1]
     freq (   64) =      66.548163 [THz] =    2219.807788 [cm-1]
     freq (   65) =      74.205881 [THz] =    2475.241757 [cm-1]
     freq (   66) =     103.862935 [THz] =    3464.494600 [cm-1]
 **************************************************************************

     [elph_tetra]   Lowest band which contains FS :         15
     [elph_tetra]  Highest band which contains FS :         20
     [elph_tetra]    # of bands which contains FS :          6
 
     Tetrahedron method
     DOS = 10.795721 states/spin/Ry/Unit Cell at Ef= 16.636401 eV
     double delta at Ef =260.480214
     lambda(    1)=  0.0000   gamma=    0.00 GHz
     lambda(    2)=  0.0000   gamma=    0.00 GHz
     lambda(    3)=  0.0000   gamma=    0.00 GHz
     lambda(    4)=  0.0000   gamma=    0.00 GHz
     lambda(    5)=  0.0000   gamma=    0.00 GHz
     lambda(    6)=  0.0000   gamma=    0.00 GHz
     lambda(    7)=  0.0000   gamma=    0.00 GHz
     lambda(    8)=  0.0000   gamma=    0.00 GHz
     lambda(    9)=  0.0000   gamma=    0.00 GHz
     lambda(   10)=  0.0000   gamma=    0.00 GHz
     lambda(   11)=  0.0000   gamma=    0.00 GHz
     lambda(   12)=  0.0000   gamma=    0.00 GHz
     lambda(   13)=  0.0000   gamma=    0.00 GHz
     lambda(   14)=  0.0000   gamma=    0.00 GHz
     lambda(   15)=  0.0000   gamma=    0.00 GHz
     lambda(   16)=  0.0000   gamma=    0.00 GHz
     lambda(   17)=  3.3978   gamma=  277.67 GHz
     lambda(   18)=  0.6093   gamma=   56.80 GHz
     lambda(   19)=  1.5615   gamma=  294.02 GHz
     lambda(   20)=  1.4782   gamma=  473.38 GHz
     lambda(   21)=  0.2096   gamma=  137.96 GHz
     lambda(   22)=  0.6333   gamma=  558.41 GHz
     lambda(   23)=  0.3997   gamma=  378.73 GHz
     lambda(   24)=  0.3223   gamma=  606.28 GHz
     lambda(   25)=  0.1821   gamma=  646.70 GHz
     lambda(   26)=  0.1212   gamma=  629.77 GHz
     lambda(   27)=  0.0165   gamma=   96.59 GHz
     lambda(   28)=  0.0766   gamma=  468.61 GHz
     lambda(   29)=  0.0864   gamma=  562.25 GHz
     lambda(   30)=  0.0156   gamma=  108.90 GHz
     lambda(   31)=  0.0528   gamma=  372.92 GHz
     lambda(   32)=  0.0368   gamma=  292.64 GHz
     lambda(   33)=  0.0845   gamma=  716.77 GHz
     lambda(   34)=  0.0223   gamma=  196.48 GHz
     lambda(   35)=  0.0355   gamma=  343.90 GHz
     lambda(   36)=  0.0372   gamma=  378.01 GHz
     lambda(   37)=  0.0190   gamma=  194.95 GHz
     lambda(   38)=  0.0506   gamma=  556.68 GHz
     lambda(   39)=  0.0210   gamma=  240.19 GHz
     lambda(   40)=  0.0359   gamma=  419.15 GHz
     lambda(   41)=  0.0327   gamma=  405.53 GHz
     lambda(   42)=  0.0149   gamma=  185.69 GHz
     lambda(   43)=  0.0405   gamma=  532.76 GHz
     lambda(   44)=  0.0246   gamma=  359.58 GHz
     lambda(   45)=  0.0283   gamma=  434.60 GHz
     lambda(   46)=  0.0167   gamma=  275.67 GHz
     lambda(   47)=  0.0446   gamma=  760.58 GHz
     lambda(   48)=  0.0253   gamma=  439.02 GHz
     lambda(   49)=  0.0147   gamma=  264.75 GHz
     lambda(   50)=  0.0490   gamma= 1061.59 GHz
     lambda(   51)=  0.0343   gamma=  747.56 GHz
     lambda(   52)=  0.0086   gamma=  194.54 GHz
     lambda(   53)=  0.0160   gamma=  365.61 GHz
     lambda(   54)=  0.0135   gamma=  325.52 GHz
     lambda(   55)=  0.0087   gamma=  224.89 GHz
     lambda(   56)=  0.0139   gamma=  365.89 GHz
     lambda(   57)=  0.0185   gamma=  505.86 GHz
     lambda(   58)=  0.0118   gamma=  340.95 GHz
     lambda(   59)=  0.0112   gamma=  343.56 GHz
     lambda(   60)=  0.0152   gamma=  484.89 GHz
     lambda(   61)=  0.0079   gamma=  268.50 GHz
     lambda(   62)=  0.0087   gamma=  296.17 GHz
     lambda(   63)=  0.0151   gamma=  563.83 GHz
     lambda(   64)=  0.0098   gamma=  447.97 GHz
     lambda(   65)=  0.0040   gamma=  229.76 GHz
     lambda(   66)=  0.0022   gamma=  243.03 GHz
 
     Number of q in the star =    6
     List of q in the star:
          1   1.279473656   0.738704460   0.132838614
          2   0.000000000  -1.477408919   0.132838614
          3  -1.279473656   0.738704460   0.132838614
          4  -1.279473656  -0.738704460  -0.132838614
          5   1.279473656  -0.738704460  -0.132838614
          6  -0.000000000   1.477408919  -0.132838614
 
     init_run     :      0.88s CPU      0.95s WALL (      10 calls)
     electrons    :   4936.28s CPU   5093.37s WALL (      10 calls)

     Called by init_run:
     wfcinit      :      0.00s CPU      0.02s WALL (      10 calls)
     potinit      :      0.02s CPU      0.03s WALL (      10 calls)
     hinit0       :      0.39s CPU      0.39s WALL (      10 calls)

     Called by electrons:
     c_bands      :   4922.41s CPU   5079.46s WALL (      10 calls)
     v_of_rho     :      0.01s CPU      0.01s WALL (      11 calls)

     Called by c_bands:
     init_us_2    :    123.96s CPU    127.84s WALL (  660184 calls)
     init_us_2:cp :    122.05s CPU    126.27s WALL (  660184 calls)
     cegterg      :   4679.10s CPU   4770.09s WALL (   58664 calls)

     Called by *egterg:
     cdiaghg      :   1323.43s CPU   1340.21s WALL ( 1020716 calls)
     h_psi        :   3108.69s CPU   3182.33s WALL ( 1079380 calls)
     g_psi        :      9.96s CPU     10.12s WALL ( 1001116 calls)

     Called by h_psi:
     h_psi:calbec :    104.68s CPU    107.20s WALL ( 1079380 calls)
     vloc_psi     :   2945.43s CPU   3015.29s WALL ( 1079380 calls)
     add_vuspsi   :     42.24s CPU     43.45s WALL ( 1079380 calls)

     General routines
     calbec       :    104.68s CPU    107.75s WALL ( 1118580 calls)
     fft          :      0.01s CPU      0.02s WALL (      33 calls)
     ffts         :    143.08s CPU    157.92s WALL (  646800 calls)
     fftw         :   6856.76s CPU   7036.92s WALL (56916086 calls)
     davcio       :     48.27s CPU    114.89s WALL ( 1301617 calls)
 
     Parallel routines
 
     PHONON       :      3h 0m CPU      3h 6m WALL

     INITIALIZATION: 
     phq_setup    :      1.85s CPU      2.21s WALL (      10 calls)
     phq_init     :      5.83s CPU      6.42s WALL (      10 calls)
 
     phq_init     :      5.83s CPU      6.42s WALL (      10 calls)
     init_vloc    :      0.28s CPU      0.29s WALL (      11 calls)
     init_us_1    :      0.16s CPU      0.17s WALL (      11 calls)
     init_us_2    :    123.96s CPU    127.84s WALL (  660184 calls)
 
 
 
 
     dvqpsi_us    :   4484.87s CPU   4625.16s WALL (  646800 calls)
     apply_dpot_b :   1166.53s CPU   1194.39s WALL (  646800 calls)
     vpsifft      :   1178.51s CPU   1206.80s WALL (  646800 calls)
 
     dvqpsi_us    :   4484.87s CPU   4625.16s WALL (  646800 calls)
     dvqpsi_us_on :    351.58s CPU    358.25s WALL (  646800 calls)
 
 
     h_psi        :   3108.69s CPU   3182.33s WALL ( 1079380 calls)
 
     h_psi        :   3108.69s CPU   3182.33s WALL ( 1079380 calls)
     add_vuspsi   :     42.24s CPU     43.45s WALL ( 1079380 calls)
 
 
 
      Electron-phonon coupling
     elphon       :   5874.93s CPU   6054.89s WALL (      10 calls)
     elphel       :   5873.65s CPU   6052.15s WALL (     616 calls)
 
      General routines
     calbec       :    104.68s CPU    107.75s WALL ( 1118580 calls)
     fft          :      0.01s CPU      0.02s WALL (      33 calls)
     ffts         :    143.08s CPU    157.92s WALL (  646800 calls)
     fftw         :   6856.76s CPU   7036.92s WALL (56916086 calls)
     davcio       :     48.27s CPU    114.89s WALL ( 1301617 calls)
 
 
     PHONON       :      3h 0m CPU      3h 6m WALL

 
   This run was terminated on:   9:55:37  29May2022            

=------------------------------------------------------------------------------=
   JOB DONE.
=------------------------------------------------------------------------------=
